thermo_style   custom step temp pe ke etotal press pxx pyy pzz v_etrue v_eengx v_eengy v_eengz v_etruex v_etruey v_etruez                f_sxx_ave f_syy_ave f_szz_ave f_sxy_ave f_sxz_ave f_syz_ave lx ly lz v_dir vol density ebond eangle edihed                eimp evdwl ecoul elong epair v_Time

restart        ${nsteps} rst1.a.${myid} rst2.a.${myid}
restart        200 rst1.a.${myid} rst2.a.${myid}
restart        200 rst1.a.tensile_1_PEEK_pxld_90_replicate_3_FF_PCFF rst2.a.${myid}
restart        200 rst1.a.tensile_1_PEEK_pxld_90_replicate_3_FF_PCFF rst2.a.tensile_1_PEEK_pxld_90_replicate_3_FF_PCFF
dump           6 all atom 10000 dump.${myid} #every picosecond
dump           6 all atom 10000 dump.tensile_1_PEEK_pxld_90_replicate_3_FF_PCFF 
dump_modify    6 scale no sort id

#-------------------Run-------------------
run            ${steps}
run            750000

CITE-CITE-CITE-CITE-CITE-CITE-CITE-CITE-CITE-CITE-CITE-CITE-CITE

Your simulation uses code contributions which should be cited:

- Type Label Framework: https://doi.org/10.1021/acs.jpcb.3c08419

@Article{Gissinger24,
 author = {Jacob R. Gissinger, Ilia Nikiforov, Yaser Afshar, Brendon Waters, Moon-ki Choi, Daniel S. Karls, Alexander Stukowski, Wonpil Im, Hendrik Heinz, Axel Kohlmeyer, and Ellad B. Tadmor},
 title = {Type Label Framework for Bonded Force Fields in LAMMPS},
 journal = {J. Phys. Chem. B},
 year =    2024,
 volume =  128,
 number =  13,
 pages =   {3282–-3297}
}

CITE-CITE-CITE-CITE-CITE-CITE-CITE-CITE-CITE-CITE-CITE-CITE-CITE

PPPM initialization ...
  using 12-bit tables for long-range coulomb (../kspace.cpp:342)
  G vector (1/distance) = 0.17928685
  grid = 15 15 15
  stencil order = 5
  estimated absolute RMS force accuracy = 0.01743412
  estimated relative force accuracy = 5.2502334e-05
  using double precision KISS FFT
  3d grid and FFT values/proc = 1690 256
Generated 28 of 28 mixed pair_coeff terms from sixthpower/sixthpower mixing rule
Neighbor list info ...
  update: every = 1 steps, delay = 0 steps, check = yes
  max neighbors/atom: 5000, page size: 100000
  master list distance cutoff = 14
  ghost atom cutoff = 14
  binsize = 7, bins = 9 9 9
  1 neighbor lists, perpetual/occasional/extra = 1 0 0
  (1) pair lj/class2/coul/long, perpetual
      attributes: half, newton on
      pair build: half/bin/newton
      stencil: half/bin/3d
      bin: standard
WARNING: Inconsistent image flags (../domain.cpp:1051)
Per MPI rank memory allocation (min/avg/max) = 14.01 | 14.01 | 14.02 Mbytes
   Step          Temp          PotEng         KinEng         TotEng         Press           Pxx            Pyy            Pzz          v_etrue        v_eengx        v_eengy        v_eengz        v_etruex       v_etruey       v_etruez      f_sxx_ave      f_syy_ave      f_szz_ave      f_sxy_ave      f_sxz_ave      f_syz_ave          Lx             Ly             Lz           v_dir          Volume        Density         E_bond        E_angle        E_dihed        E_impro         E_vdwl         E_coul         E_long         E_pair         v_Time    
         0   298            40664.611      16894.224      57558.835      247.22455      125.12366      550.47657      66.073434      0             -2.3973837e-16  5.9413871e-16  5.9457421e-16 -2.220446e-16   6.6613381e-16  6.6613381e-16  0              0              0              0              0              0              59.276513      59.796031      59.752234      1              211791.8       1.2577218      8846.6806      13052.236      8789.2754      1080.7622     -1811.5447      24684.942     -13977.741      8895.6561      0            
       200   299.65691      40683.437      16988.157      57671.595      25.666554      627.88318     -365.29539     -185.58813      3.99992e-05    4e-05          0.00018199074 -0.00021376953  3.99992e-05    0.00018197419 -0.00021379238 -0.29095055     0.045253941    10.928562      1.4484938      15.381325     -18.194094      59.278884      59.806913      59.73946       1              211793.53      1.2577115      9045.6066      12955.257      8695.3722      1062.9449     -1796.767       24697.773     -13976.75       8924.2569      0.2          
       400   296.31436      40586.441      16798.662      57385.103     -965.87995     -986.55632     -1458.7232     -452.36028      7.99968e-05    8e-05          0.0002917053  -0.0022282442   7.99968e-05    0.00029166276 -0.0022307305  -17.641197     -13.789007      12.115239      11.312801      12.833248     -9.4865697      59.281255      59.813473      59.619091      1              211398.43      1.2600622      8811.7899      12863.281      8914.4166      1060.6346     -1762.0497      24677.87      -13979.501      8936.319       0.4          
       600   297.71531      40656.049      16878.084      57534.134     -195.31194      126.9648       197.81981     -910.72044      0.0001199928   0.00012        0.00041307035 -0.0042605896   0.0001199928   0.00041298506 -0.0042696918  -10.832362      5.3887873     -21.82942       12.606143     -5.0340814     -2.1468324      59.283626      59.820731      59.497654      1              211001.87      1.2624303      8864.4238      12884.557      8863.1615      1099.8697     -1771.4516      24692.155     -13976.666      8944.0378      0.6          
       800   299.27286      40726.889      16966.385      57693.274      432.7574      -157.0482       1541.672      -86.351621      0.0001599872   0.00016        0.0003768741  -0.0024877364   0.0001599872   0.0003768031  -0.0024908359  -3.6818894      16.204084     -19.246786      11.595321      3.6013078     -19.947561      59.285997      59.818566      59.603586      1              211378.36      1.2601818      8957.1631      12859.63       8879.529       1100.46       -1785.3474      24691.777     -13976.323      8930.1064      0.8          
      1000   296.11283      40773.676      16787.237      57560.912     -105.72256     -153.71694     -999.7331       836.28237      0.00019998     0.0002         0.00029137563 -0.00076423298  0.00019998     0.00029133319 -0.00076452515 -2.188803      -9.1220781      10.657835      7.3020122      1.7386892     -2.0634174      59.288368      59.813454      59.706569      1              211733.95      1.2580655      8834.0673      12932.02       8908.3153      1089.9183     -1710.61        24698.586     -13978.621      9009.3546      1            
      1200   293.62202      40575.42       16646.027      57221.448      945.49406      291.70628      1728.5321      816.24383      0.0002399712   0.00024        0.00068815541  0.0013262201   0.0002399712   0.00068791874  0.0013253414  -6.6237752      4.008558      -10.450834      32.290332      11.55134      -18.636294      59.290739      59.83718       59.831478      1              212269.56      1.254891       8762.7532      12869.607      8792.4583      1081.2258     -1655.359       24703.26      -13978.525      9069.3761      1.2          
      1400   299.11433      40495.758      16957.398      57453.156     -501.1316       254.84129     -1043.7334     -714.50273      0.00027996081  0.00028       -0.00068260543  0.0029026785   0.00027996081 -0.00068283851  0.0028984738   30.196846      33.569619      20.523928      18.033161      13.399118     -3.3299098      59.29311       59.755214      59.925675      1              212321.01      1.2545869      8743.6304      12780.486      8953.0229      1053.6077     -1739.5096      24682.489     -13977.969      8965.0107      1.4          
      1600   298.28036      40605.758      16910.118      57515.876     -254.30498     -455.5451      -87.828961     -219.54089      0.00031994881  0.00032       -0.0036042625   0.001637128    0.00031994881 -0.0036107735   0.0016357894  -7.5091377     -11.899304      15.811352      19.514961      2.237522       14.07163       59.295481      59.58051       59.850056      1              211441.57      1.2598051      8788.9414      12797.747      8899.6323      1077.5313     -1648.3347      24668.278     -13978.036      9041.9065      1.6          
      1800   296.97698      40658.839      16836.227      57495.065     -382.40922     -19.863271     -455.88858     -671.47582      0.00035993522  0.00036       -0.004712431    0.0019171516   0.00035993522 -0.0047235695   0.0019153162  -10.66485      -11.473414     -27.114735      0.72445368    -3.4166591      10.764702      59.297852      59.514246      59.866788      1              211273.9       1.2608049      8792.9685      12937.015      8957.3013      1069.8248     -1802.2144      24684.664     -13980.72       8901.7292      1.8          
      2000   299.93888      40773.941      17004.143      57778.084      383.88314      79.628711      445.51372      626.50701      0.00039992002  0.0004        -0.0050264013   0.0038489581   0.00039992002 -0.0050390762   0.0038415698  -2.5187145     -9.8503021     -3.208249       12.443901      2.102421      -4.8446062      59.300223      59.495472      59.982217      1              211622.95      1.2587253      9087.954       12988.707      8700.4767      1074.0269     -1773.4249      24675.919     -13979.718      8922.776       2            
      2200   297.54439      40566.719      16868.394      57435.113     -728.7325      -40.229531     -1023.2673     -1122.7006      0.00043990323  0.00044       -0.0053021834   0.003257392    0.00043990323 -0.0053162899   0.0032520982   3.6704287      1.9458083      23.497861      25.750872      9.5796799      0.23203371     59.302594      59.478981      59.94687       1              211448.07      1.2597664      8740.5516      13040.14       8756.4914      1050.4381     -1756.7326      24714.636     -13978.805      8979.0981      2.2          
      2400   299.18078      40577.341      16961.165      57538.505     -267.12101      570.59212     -205.20461     -1166.7505      0.00047988484  0.00048       -0.0047583584   0.0023367551   0.00047988484 -0.0047697154   0.0023340291  -4.3033546     -9.5815379     -11.292559      29.812608      11.182511     -8.8240716      59.304965      59.5115        59.89186       1              211377.98      1.2601841      8964.282       12839.764      8818.3459      1061.9323     -1827.3151      24699.512     -13979.181      8893.0164      2.4          
      2600   300.23418      40731.524      17020.884      57752.408      65.527742      128.76525     -208.41784      276.23581      0.00051986485  0.00052       -0.0038320553   0.0017574143   0.00051986485 -0.0038394165   0.0017558718   14.142007     -5.6355947      14.365577      18.159939      2.0448837     -4.1518023      59.307336      59.566889      59.857243      1              211460.89      1.25969        8902.9815      13014.194      8733.3066      1106.6968     -1755.0687      24706.936     -13977.522      8974.3453      2.6          
      2800   298.30878      40439.728      16911.729      57351.458      1158.8623      773.66558      1389.3934      1313.5278      0.00055984326  0.00056       -0.0031526583  -0.00018940148  0.00055984326 -0.0031576384  -0.00018941942 -22.820158     -8.1627069     -0.50670373     16.800029      9.310009       1.0492446      59.309707      59.607514      59.740916      1              211202.31      1.2612322      8795.3924      12904.931      8638.6451      1061.3676     -1682.4106      24700.151     -13978.348      9039.3921      2.8          
      3000   299.3436       40607.056      16970.395      57577.451      102.28997      600.84272     -964.82945      670.85664      0.00059982007  0.0006        -0.0018545857  -0.0009862678   0.00059982007 -0.0018563076  -0.00098675448 -1.925869      -0.29986543    -9.9175851      26.309322      12.182448     -1.8807288      59.312079      59.685134      59.693302      1              211317.23      1.2605463      8819.3744      13011.486      8732.8343      1074.1455     -1734.8884      24680.459     -13976.354      8969.2159      3            
      3200   296.72534      40796.469      16821.961      57618.43      -987.97363     -1988.4284     -697.11261     -278.37992      0.00063979529  0.00064       -0.0012520758   0.000102955    0.00063979529 -0.0012528603   0.0001029497   11.603029      16.148984     -9.4878074      12.10348       4.1922232     -14.181555      59.31445       59.721162      59.758385      1              211683.79      1.2583635      8849.1235      13047.951      8895.8887      1099.1818     -1769.721       24650.534     -13976.489      8904.3242      3.2          
      3400   296.05516      40549.992      16783.967      57333.959      286.44157      729.53787     -260.5972       390.38405      0.0006797689   0.00068       -0.0025855716   0.00079961654  0.0006797689  -0.00258892     0.00079929701 -0.44570936     20.07176       12.091708      16.891699      9.1223528     -8.0472097      59.316821      59.641424      59.800012      1              211556.87      1.2591185      8912.1706      12856.017      8881.729       1069.5039     -1880.0813      24687.403     -13976.75       8830.5714      3.4          
      3600   295.89793      40864.877      16775.053      57639.93      -483.42113     -1113.4966     -247.01868     -89.748133      0.00071974092  0.00072       -0.0037754016   0.00079003298  0.00071974092 -0.0037825464   0.00078972107 -6.08494       -14.849162      4.33603        14.225102      5.600258      -6.3112326      59.319192      59.570277      59.79944       1              211310.93      1.260584       8908.0179      13083.943      8928.1328      1086.2758     -1847.0657      24683.262     -13977.688      8858.5075      3.6          
      3800   298.16377      40711.666      16903.508      57615.174      726.35922      577.2573       931.36308      670.45726      0.00075971135  0.00076       -0.0042213155   0.0004079348   0.00075971135 -0.0042302505   0.00040785162  17.552397      1.8769683     -5.9939331      17.216228      0.85334433    -4.1883287      59.321563      59.543613      59.776609      1              211144.14      1.2615797      8933.6332      12875.879      8841.0092      1097.4211     -1719.9315      24664.318     -13980.662      8963.7241      3.8          
      4000   298.37953      40603.36       16915.74       57519.1       -274.19104     -462.92313     -114.68062     -244.96936      0.00079968017  0.0008        -0.0042012219  -2.360254e-05   0.00079968017 -0.0042100719  -2.3602819e-05 -7.0708026     -17.901007      11.87358       0.65580983    -10.598873      4.5547744      59.323934      59.544814      59.750823      1              211065.76      1.2620482      8878.7954      12806.941      8849.2656      1063.8136     -1721.8624      24705.111     -13978.705      9004.5438      4            
      4200   294.55907      40571.547      16699.15       57270.698     -310.16717     -254.60315     -391.54712     -284.35122      0.0008396474   0.00084       -0.0028523008  -0.0002502469   0.0008396474  -0.0028563764  -0.00025027821 -31.884396     -8.1014065     -18.543726      8.1785866     -0.99318623    -8.0903985      59.326305      59.625474      59.737281      1              211312.21      1.2605763      8885.2123      12811.88       8856.2926      1070.2847     -1767.7563      24696.764     -13981.131      8947.8772      4.2          
      4400   295.26453      40738.809      16739.144      57477.954      458.58903      1218.7692      356.4964      -199.49857      0.00087961303  0.00088       -0.0014502891   0.00041652951  0.00087961303 -0.0014513418   0.00041644278  18.549371      14.579767      11.414383      1.2548172      5.7324408     -2.4885406      59.328676      59.709309      59.777122      1              211758.92      1.2579171      8934.618       13005.383      8707.4536      1071.6041     -1726.6759      24724.07      -13977.642      9019.7513      4.4          
      4600   296.78101      40788.066      16825.117      57613.183     -538.36153      8.3018516     -681.3585      -942.02795      0.00091957706  0.00092       -0.00047996627 -0.00021627825  0.00091957706 -0.00048008149 -0.00021630164  5.8319178     -8.035688       9.3025154      2.9411554      9.1387804     -0.056081197    59.331047      59.767331      59.73931       1              211839.08      1.2574411      8856.4211      13005.214      8855.616       1066.8796     -1721.9621      24704.408     -13978.511      9003.9353      4.6          
      4800   294.53108      40614.399      16697.564      57311.963      227.10666      50.579561     -300.44888      931.1893       0.00095953949  0.00096        0.00063760491 -3.4883481e-05  0.00095953949  0.00063740173 -3.488409e-05   20.649028      17.816625     -12.578834      11.913763      4.4078429     -3.1485529      59.333418      59.834157      59.750149      1              212122.89      1.2557587      8898.6757      12961.15       8708.1147      1056.9453     -1730.5667      24698.526     -13978.446      8989.5134      4.8          
      5000   298.1529       40626.68       16902.892      57529.572      346.98986      765.13333     -177.7518       453.58806      0.00099950033  0.001         -0.0012359219   0.00082562378  0.00099950033 -0.0012366863   0.00082528314  5.2296493      24.986877     -2.8313589      25.356585     -2.1893066      0.93957278     59.335789      59.722127      59.801566      1              211916.39      1.2569824      8809.9934      12906.863      8890.7694      1079.8186     -1766.832       24684.974     -13978.907      8939.2359      5            
      5200   299.08124      40592.409      16955.521      57547.931     -331.04104     -475.60138     -67.304083     -450.21766      0.0010394596   0.00104       -0.0043237476   0.00093616339  0.0010394596  -0.0043331221   0.00093572546 -7.1416681     -17.499701      9.5389404      24.000915     -19.132237      2.7000227      59.33816       59.537488      59.808171      1              211293         1.2606909      8816.6085      12846.677      8865.2608      1070.6909     -1708.1196      24679.839     -13978.547      8993.1717      5.2          
      5400   296.01753      40575.138      16781.833      57356.972     -638.95961     -794.85498     -769.85167     -352.17219      0.0010794172   0.00108       -0.005397471    0.00069291475  0.0010794172  -0.0054120899   0.00069267479  0.69156184    -6.6076068     -12.28087       31.980447      1.4731724     -8.3904871      59.340531      59.473283      59.793637      1              211022.28      1.2623082      8809.1817      12927.938      8875.2904      1071.3345     -1808.6878      24676.72      -13976.638      8891.3941      5.4          
      5600   297.93709      40491.108      16890.658      57381.766      471.00615      642.83568      321.75365      448.42913      0.0011193733   0.00112       -0.0062478069   0.0017222138   0.0011193733  -0.0062674061   0.0017207325   4.564055      -14.675428     -10.071608      35.972626      8.630017      -9.9040206      59.342902      59.422437      59.85514       1              211067.17      1.2620398      8747.8384      12868.444      8900.8252      1085.6482     -1768.0896      24635.879     -13979.437      8888.3522      5.6          
      5800   295.44675      40870.514      16749.475      57619.988     -7.5507378      599.17142      1037.4336     -1659.2572      0.0011593277   0.00116       -0.0051935524   0.0030656972   0.0011593277  -0.0052070857   0.0030610075   3.5443021     -4.7321841      15.444837      16.436182     -9.0989985     -17.659616      59.345273      59.485477      59.935416      1              211582.92      1.2589635      9051.309       12959.181      8819.8894      1075.2751     -1720.9043      24664.432     -13978.668      8964.8593      5.8          
      6000   297.99053      40364.897      16893.687      57258.584      175.74003     -182.9556       363.48935      346.68635      0.0011992806   0.0012        -0.0039789335   0.0017421412   0.0011992806  -0.0039868705   0.0017406254  -19.483326     -6.2079504      15.680174      20.941756      1.7531921     -26.628279      59.347644      59.558106      59.85633       1              211570.18      1.2590393      8857.9961      12805.169      8712.8816      1074.3148     -1780.3888      24672.139     -13977.215      8914.5356      6            
      6200   297.10815      40530.597      16843.663      57374.26      -197.89365      282.34438     -502.42111     -373.60422      0.0012392318   0.00124       -0.0026547064   0.00024022531  0.0012392318  -0.0026582363   0.00024019646  7.7939451      10.020577     -22.72945       16.271345     -3.3535        -4.460213       59.350016      59.63729       59.766588      1              211542.29      1.2592053      8916.5972      12840.385      8773.8171      1059.0568     -1748.8977      24668.41      -13978.771      8940.7413      6.2          
      6400   298.53031      40686.87       16924.288      57611.158      329.1884       234.7713       175.82074      576.97316      0.0012791815   0.00128       -0.0022527961  -0.00027430832  0.0012791815  -0.0022553374  -0.00027434595  21.178902      14.387671      18.663152      4.3785796      2.941606      -0.46409499     59.352387      59.661322      59.735843      1              211527.12      1.2592956      8817.1608      12883.62       8992.2353      1081.6466     -1796.0935      24686.981     -13978.681      8912.2072      6.4          
      6600   295.8109       40653.68       16770.119      57423.799      469.3868       791.98433      28.274793      587.90127      0.0013191296   0.00132       -0.0029366732  -0.0016102611   0.0013191296  -0.0029409937  -0.001611559   -0.092573947   -1.4963883     -30.16468       3.9962575      3.0564378      8.167258       59.354758      59.620429      59.656017      1              211108.1       1.2617951      8838.9041      12956.988      8824.0373      1086.9399     -1771.0846      24696.206     -13978.31       8946.8112      6.6          
      6800   298.9403       40464.448      16947.531      57411.98       530.89918      881.43361      1565.4102     -854.14624      0.001359076    0.00136       -0.0030523543  -0.00032461587  0.001359076   -0.0030570222  -0.00032466856 -2.6460201     -4.953957      -3.6386903      4.2047902     -1.6261412      12.040503      59.357129      59.613512      59.732837      1              211363.86      1.2602683      8892.0077      12758.682      8824.3427      1092.9014     -1793.3503      24669.961     -13980.096      8896.5141      6.8          
      7000   299.49568      40620.577      16979.017      57599.594     -106.71132     -441.10113      344.34489     -223.37772      0.0013990209   0.0014        -0.0032250852  -5.2400127e-06  0.0013990209  -0.003230297   -5.2400264e-06  7.1247657     -0.036409788    14.534         13.151287      3.0412384     -12.399649      59.3595        59.603183      59.75192       1              211403.2       1.2600337      8854.1871      12964.127      8753.4497      1081.0212     -1748.1952      24693.175     -13977.188      8967.7922      7            
      7200   299.18785      40601.454      16961.565      57563.019      418.41688      187.17181      160.63895      907.43988      0.0014389642   0.00144       -0.0031403263   0.0011542209   0.0014389642  -0.0031452674   0.0011535553  -22.792316     -0.51009472    -19.148864      7.4703286      1.0736008     -7.1358291      59.361871      59.608252      59.821201      1              211674.77      1.2584172      8886.3184      12918.081      8727.712       1060.7904     -1715.1487      24700.982     -13977.281      9008.5525      7.2          
      7400   299.2262       40544.305      16963.74       57508.045     -756.12332     -1180.0486     -1166.8426      78.521211      0.0014789059   0.00148       -0.0037019629   0.0033531404   0.0014789059  -0.0037088321   0.0033475311   16.448979      19.764503      16.018326      11.678098     -3.2924937     -19.62122       59.364242      59.574668      59.952591      1              212028.63      1.2563169      8842.2565      12794.59       8909.401       1062.8497     -1755.8984      24670.287     -13979.181      8935.2081      7.4          
      7600   297.04962      40493.491      16840.345      57333.836      123.96472      307.84581      42.13762       21.910723      0.001518846    0.00152       -0.0061630424   0.0032212196   0.001518846   -0.0061821123   0.0032160426   0.13737136    -0.86651323     25.806636      10.854531     -6.8246255      1.3160042      59.366613      59.427505      59.944709      1              211485.51      1.2595433      8892.7626      12796.569      8782.8184      1077.5983     -1737.0775      24658.99      -13978.17       8943.7424      7.6          
      7800   299.06946      40707.472      16954.854      57662.325      219.94085      826.00393     -913.70085      747.51948      0.0015587845   0.00156       -0.0071111617   0.0022355769   0.0015587845  -0.0071365666   0.0022330817   4.346374      -17.758733     -5.7196294      15.932193      1.3154372     -4.0837399      59.368984      59.370811      59.885814      1              211084.61      1.2619355      8820.1938      13029.044      8809.4447      1084.5663     -1729.6933      24671.831     -13977.914      8964.2229      7.8          
      8000   297.66379      40646.941      16875.163      57522.104      913.6808       766.14357      1168.6545      806.2443       0.0015987214   0.0016        -0.0077259848   0.0024022293   0.0015987214  -0.0077559848   0.0023993485   4.6894911     -11.504344     -14.555783      14.205126      2.9883556     -2.6790873      59.371355      59.334047      59.895772      1              210997.4       1.2624571      8814.5276      12852.574      8924.4742      1079.1611     -1709.921       24664.902     -13978.776      8976.2046      8            
      8200   297.21774      40633.867      16849.876      57483.743      476.736        64.225173      1430.6481     -64.66529       0.0016386567   0.00164       -0.0072906307   0.0029310001   0.0016386567  -0.0073173373   0.0029267131  -19.420917      6.1111075      12.132221      19.520785     -0.46997798    -5.2662554      59.373726      59.36008       59.927367      1              211209.76      1.2611878      8948.664       12909.828      8709.7434      1065.2027     -1709.1724      24684.032     -13974.431      9000.4292      8.2          
      8400   297.07807      40579.014      16841.958      57420.972      210.55704      757.82265      189.82988     -315.9814       0.0016785904   0.00168       -0.0066673501   0.0019594201   0.0016785904  -0.0066896762   0.0019575029  -11.023585     -12.695633      7.8770763      12.165042      6.2794862     -3.9726433      59.376097      59.39735       59.869313      1              211146.06      1.2615682      8871.5537      12961.476      8679.9615      1056.4545     -1703.0381      24689.511     -13976.904      9009.5683      8.4          
      8600   297.0507       40592.648      16840.406      57433.055      221.68178      800.40757     -93.452787     -41.909452      0.0017185225   0.00172       -0.0057507646   0.0015026742   0.0017185225  -0.0057673639   0.0015015463   6.0115944      14.374        -19.471691      0.35956041     1.8696958     -11.10822       59.378468      59.452158      59.842022      1              211252.99      1.2609297      8976.4892      12814.112      8757.9977      1077.4186     -1731.5668      24676.517     -13978.319      8966.6312      8.6          
      8800   300.99475      40653.475      17064.002      57717.477      939.1786       1464.6702      522.92133      829.94422      0.001758453    0.00176       -0.0045503533   0.0017058585   0.001758453   -0.0045607376   0.0017044052   3.0887899     -6.5068694     -0.17293473     10.457145     -3.8807894     -8.0712524      59.380839      59.523938      59.854162      1              211559.41      1.2591034      8863.7309      12950.699      8719.3439      1093.1457     -1675.6271      24680.316     -13978.133      9026.5554      8.8          
      9000   297.14962      40508.988      16846.014      57355.002      212.97427     -225.99044      482.73717      382.17609      0.0017983819   0.0018        -0.0036207848   0.0013780178   0.0017983819  -0.0036273557   0.0013770692  -7.9359175      18.911866      10.939959      3.8352679     -4.6524354      12.818827      59.38321       59.579522      59.834573      1              211696.11      1.2582903      8936.5016      12790.397      8713.7194      1054.4375     -1694.6946      24683.964     -13975.336      9013.9334      9            
      9200   299.18371      40528.473      16961.331      57489.803     -483.719       -225.4224      -423.25984     -802.47477      0.0018383093   0.00184       -0.0041733222   0.00080083708  0.0018383093  -0.0041820548   0.00080051658  5.4154771     -0.83584657    -7.8546073      12.189243      4.054762      -3.7908093      59.385581      59.546483      59.800085      1              211465.21      1.2596642      8794.6855      12806.808      8864.3609      1096.4274     -1704.3005      24646.298     -13975.806      8966.1911      9.2          
      9400   297.94802      40688.474      16891.277      57579.751     -519.96556     -1189.9247      60.724733     -430.69665      0.001878235    0.00188       -0.0043807817   0.00015771033  0.001878235   -0.0043904055   0.00015769789 -6.2762346     -12.822379     -1.5468589      13.30006       3.2753153      1.4905001      59.387952      59.534077      59.761657      1              211293.73      1.2606866      8952.772       12804.893      8912.7771      1062.0084     -1774.3668      24706.611     -13976.222      8956.0229      9.4          
      9600   297.39146      40337.518      16859.725      57197.243      812.99236      837.10556      1270.6554      331.21617      0.0019181592   0.00192       -0.0031415167  -0.0010587728   0.0019181592  -0.0031464616  -0.0010593337   1.5844555     -0.0047331078   0.98628494     19.000983      2.0145914     -7.9129543      59.390324      59.60818       59.688969      1              211307.85      1.2606023      8731.4617      12813.633      8826.3145      1067.6627     -1819.9184      24698.191     -13979.826      8898.4465      9.6          
      9800   296.60028      40681.624      16814.871      57496.495     -113.99797     -218.55355      234.70391     -358.14426      0.0019580817   0.00196       -0.0011596374  -0.0021723083   0.0019580817  -0.0011603103  -0.0021746712  -0.27317694    -1.8798585     -6.1506693      20.015899      17.960418     -1.6874819      59.392695      59.726689      59.622433      1              211500.39      1.2594547      8833.0202      12933.448      8835.6412      1099.4378     -1719.5478      24679.014     -13979.39       8980.0768      9.8          
     10000   295.57942      40845.374      16756.996      57602.37       20.934075     -332.10421     -281.20106      676.10749      0.0019980027   0.002         -0.00037176861 -0.0038114751   0.0019980027  -0.00037183773 -0.0038187573  -3.6044378      20.414332      5.8134572      8.8308888      19.57886      -8.0090301      59.395066      59.7738        59.524489      1              211327.94      1.2604825      8925.576       12893.453      8918.1214      1102.3527     -1695.5298      24678.912     -13977.511      9005.8712      10           
     10200   298.12787      40390.432      16901.473      57291.904     -1027.4927     -1598.9919     -357.49195     -1125.9942      0.002037922    0.00204        0.00048803503 -0.004908451    0.002037922    0.00048791598 -0.004920537    7.6047837     -6.0752105     -11.285824      15.270805      6.5126805     -11.878554      59.397437      59.825213      59.458943      1              211285.23      1.2607373      8801.8632      12771.685      8896.1453      1068.0215     -1861.2009      24690.917     -13976.999      8852.7168      10.2         
     10400   297.78568      40555.613      16882.074      57437.687      358.86629      597.38455     -413.46885      892.68318      0.0020778398   0.00208        4.7948545e-05 -0.0044705421   0.0020778398   4.7947395e-05 -0.0044805649   7.5388631      24.763897     -6.8424285      20.197646      7.2901101     -9.5019303      59.399808      59.798898      59.485109      1              211293.67      1.2606869      8894.8614      12855.696      8765.5908      1074.7799     -1769.8406      24710.568     -13976.043      8964.6846      10.4         
     10600   299.89442      40566.167      17001.622      57567.79       19.521021      600.42664     -390.76436     -151.09921      0.002117756    0.00212       -0.0011581551  -0.0017777758   0.002117756   -0.0011588263  -0.0017793579  -6.8318681     -4.4072219     -21.095849      12.703204      8.3574402     -13.641279      59.402179      59.726778      59.646007      1              211618.11      1.2587541      8787.1314      12948          8892.4934      1082.3049     -1849.7696      24683.605     -13977.598      8856.2374      10.6         
     10800   295.35344      40555.898      16744.185      57300.083     -456.48863     -610.5188      -985.13206      226.18498      0.0021576706   0.00216       -0.0034554873   0.00029162014  0.0021576706  -0.0034614712   0.00029157763  3.3659574     -1.7301356      16.616598      7.3568066      4.908068      -7.5395924      59.40455       59.589406      59.769658      1              211577.53      1.2589955      8878.6339      12792.756      8895.4489      1084.3788     -1810.2745      24693.852     -13978.898      8904.6801      10.8         
     11000   295.91757      40725.241      16776.167      57501.407      165.17583     -468.46814      256.59882      707.3968       0.0021975835   0.0022        -0.0051336994   0.0015615741   0.0021975835  -0.0051469221   0.0015603561   6.2016264      1.5208837      0.10529615     26.426074      1.8036563      13.214232      59.406921      59.489056      59.845541      1              211497.83      1.25947        9051.5616      12776.822      8837.4919      1098.4863     -1736.1815      24675.193     -13978.132      8960.879       11           
     11200   299.38617      40581.705      16972.808      57554.513      485.80706      1504.0569      207.50295     -254.13868      0.0022374949   0.00224       -0.0065484103   0.0034380409   0.0022374949  -0.0065699452   0.0034321444   13.778282      0.083338188    9.0879313      16.176792      5.768832       6.7090387      59.409292      59.404462      59.957664      1              211601.21      1.2588546      8800.1299      12930.46       8750.2567      1104.4636     -1712.8862      24685.759     -13976.479      8996.3945      11.2         
     11400   297.7541       40619.797      16880.283      57500.08      -91.35625       624.41737      137.56887     -1036.055       0.0022774047   0.00228       -0.0073682523   0.003111891    0.0022774047  -0.0073955319   0.0031070591  -1.3784696     -13.321004      23.88405       14.563634      3.7521421     -2.298567       59.411663      59.355438      59.938176      1              211366.3       1.2602537      8858.8806      12892.235      8855.7262      1084.7221     -1768.1726      24674.481     -13978.075      8928.2331      11.4         
     11600   298.48863      40334.034      16921.925      57255.96      -13.388135     -332.57579      631.39771     -338.98633      0.002317313    0.00232       -0.0075486733   0.00094919303  0.002317313   -0.0075773087   0.00094874283  10.474712     -1.4683815     -3.4886979      24.125153      11.670299     -9.6639648      59.414034      59.34465       59.80895       1              210880.68      1.2631559      8800.8051      12806.758      8767.0061      1040.7827     -1764.1546      24660.629     -13977.791      8918.6826      11.6         
     11800   298.23772      40560.996      16907.701      57468.697     -812.66831     -27.108937     -1008.1897     -1402.7063      0.0023572196   0.00236       -0.0065361369   0.00052770082  0.0023572196  -0.006557591    0.00052756163  6.7144472     -14.184326     -8.2838915      13.026999      4.8494176     -12.782083      59.416405      59.405196      59.783765      1              211015.36      1.2623497      8830.0017      12949.122      8862.3522      1067.9623     -1829.1643      24659.168     -13978.446      8851.558       11.8         
     12000   297.42338      40731.51       16861.534      57593.044     -663.15218     -762.80377     -935.36997     -291.2828       0.0023971246   0.0024        -0.0044526713   0.00074927076  0.0023971246  -0.004462614    0.0007489902  -12.587017     -14.46584      -6.476053       12.020032      6.8145699      12.480463      59.418776      59.529779      59.797004      1              211513.16      1.2593787      8835.845       12980.838      9000.4968      1095.1177     -1864.5321      24663.724     -13979.979      8819.2127      12           
     12200   296.9116       40585.895      16832.52       57418.415      62.015264     -815.52146      356.64522      644.92203      0.002437028    0.00244       -0.0025844193   2.7660571e-06  0.002437028   -0.0025877646   2.7660533e-06  3.8319412      5.3893164     -5.2797477      10.805811      5.7699998     -14.428349      59.421147      59.641493      59.752399      1              211760.47      1.2579079      8966.5219      12978.507      8644.8584      1054.2902     -1755.4664      24673.418     -13976.235      8941.7165      12.2         
     12400   296.8517       40496.941      16829.125      57326.065     -450.38882     -1600.2007      69.858516      179.17567      0.0024769299   0.00248       -0.0021466448   0.00062340021  0.0024769299  -0.0021489522   0.00062320598  20.217154      9.1398485     -4.663264       14.36127      -8.10256        3.9639445      59.423518      59.66767       59.789483      1              211993.35      1.256526       8853.8556      12881.16       8653.1724      1063.1373     -1678.2013      24699.468     -13975.651      9045.6158      12.4         
     12600   296.89327      40843.961      16831.481      57675.442     -432.45782     -554.34687      77.46698      -820.49356      0.0025168301   0.00252       -0.0018875152  -0.00035797588  0.0025168301  -0.0018892988  -0.00035803997  24.977633      5.7501531      21.672306      15.772031      10.171245     -9.088466       59.425889      59.683165      59.730844      1              211848.89      1.2573829      8801.1831      13058.331      8906.1438      1086.3095     -1737.8252      24706.056     -13976.237      8991.9943      12.6         
     12800   299.03086      40496.441      16952.666      57449.106      477.98364      430.34282      107.72291      895.88518      0.0025567288   0.00256       -0.0027943775  -0.0017610619   0.0025567288  -0.0027982891  -0.0017626144   20.260957      17.594901     -1.0593341      22.702598      14.953826     -18.631971      59.428261      59.628938      59.647006      1              211367.76      1.260245       8922.6203      12874.286      8575.2091      1080.0828     -1675.4417      24696.536     -13976.851      9044.2426      12.8         
     13000   295.34417      40672.307      16743.66       57415.966      426.37424      226.29286      643.20837      409.62149      0.0025966258   0.0026        -0.0034723804  -0.0024492065   0.0025966258  -0.0034784231  -0.0024522107  -12.107682     -4.8338191     -0.59249827     22.867593      2.5586412      8.0412732      59.430632      59.588396      59.605888      1              211086.86      1.261922       9038.0762      12993.72       8691.8927      1056.9597     -1802.7222      24671.707     -13977.327      8891.6579      13           
     13200   300.74166      40810.115      17049.654      57859.77       68.036998      414.40615      53.6616       -263.95676      0.0026365213   0.00264       -0.0038425447  -0.0015309959   0.0026365213  -0.0038499462  -0.0015321691  -1.2703021     -20.151575     -21.596344      3.7493121      7.8766491     -10.660776      59.433003      59.566262      59.660753      1              211211.11      1.2611797      8912.25        12930.836      8844.928       1104.519      -1677.2454      24674.638     -13979.81       9017.5822      13.2         
     13400   297.70136      40664.128      16877.293      57541.421     -373.82822     -453.89084      469.61848     -1137.2123      0.0026764152   0.00268       -0.0037744895  -8.9994807e-05  0.0026764152  -0.0037816309  -8.9998856e-05  11.767874      17.898485      6.1684006      8.7839138      15.330115     -0.81639861     59.435374      59.570331      59.746856      1              211538.82      1.2592259      8870.8128      12963.299      8835.3117      1088.0643     -1818.8329      24704.954     -13979.482      8906.6394      13.4         
     13600   295.65411      40629.342      16761.23       57390.573      462.80451      404.20219      453.33713      530.8742       0.0027163075   0.00272       -0.0045731503   0.00011673653  0.0027163075  -0.0045836391   0.00011672972  13.412458      1.4819629      2.7187913      20.347327      25.042195     -8.1065225      59.437745      59.522574      59.759209      1              211421.36      1.2599255      8915.0169      12978.719      8756.3245      1074.272      -1809.9336      24691.724     -13976.781      8905.0099      13.6         
     13800   299.52068      40784.117      16980.434      57764.552      628.26411      328.30338      390.21464      1166.2743      0.0027561982   0.00276       -0.0057040408  -0.00033414052  0.0027561982  -0.0057203709  -0.00033419636 -5.7135396     -2.5258041      2.1107167      12.375861      17.752046     -8.5186317      59.440116      59.454952      59.732268      1              211094.39      1.2618771      9054.6735      12994.96       8745.7224      1082.8796     -1800.729       24685.322     -13978.711      8905.8817      13.8         
     14000   299.03711      40570.408      16953.02       57523.427     -322.43108     -1473.1648     -276.70837      782.57987      0.0027960873   0.0028        -0.0052016316  -0.0013329733   0.0027960873  -0.0052152072  -0.0013338625  -11.389631     -14.036595     -4.7638649      32.157669      16.923099     -21.358603      59.442487      59.484994      59.672585      1              210998.44      1.2624509      8928.247       12900.862      8739.7398      1096.596      -1832.7622      24715.305     -13977.579      8904.9634      14           
     14200   297.1669       40557.235      16846.994      57404.229     -568.93016     -993.60915     -1152.5979      439.41656      0.0028359748   0.00284       -0.0037782679  -0.0010553956   0.0028359748  -0.0037854236  -0.0010559529   16.990197     -6.2776695     -11.53907       27.731726      15.057172      6.4139701      59.444858      59.570105      59.689171      1              211367.5       1.2602466      8939.3365      12911.103      8803.3874      1087.2141     -1875.7092      24671.135     -13979.232      8816.1945      14.2         
     14400   298.36412      40822.92       16914.867      57737.787     -135.41666     -39.502269     -1114.4114      747.66371      0.0028758607   0.00288       -0.0033497123  -7.4170459e-05  0.0028758607  -0.0033553352  -7.417321e-05  -6.2142136      15.577229      7.4505108      11.445148      11.588278      15.480625      59.447229      59.595731      59.747802      1              211674.58      1.2584183      9089.7817      13039.057      8745.7713      1077.6073     -1829.8992      24679.59      -13978.989      8870.7026      14.4         
     14600   301.16777      40635.756      17073.811      57709.567      107.0556       20.764035      119.35058      181.05219      0.0029157451   0.00292       -0.0046191759  -0.00012085204  0.0029157451  -0.0046298772  -0.00012085935  17.190881      14.191827      2.9971308      14.012697      4.1442775     -9.2318347      59.4496        59.519822      59.745012      1              211403.52      1.2600318      8921.3431      12929.948      8816.5767      1067.0733     -1792.1787      24671.833     -13978.839      8900.8145      14.6         
     14800   297.00637      40641.254      16837.893      57479.146      546.99906      579.59088      1339.701      -278.29472      0.0029556278   0.00296       -0.005762576    0.00025702121  0.0029556278  -0.0057792437   0.00025698819  5.0802855     -5.3081478      1.0042425      17.967263      10.187627      9.6827183      59.451971      59.451452      59.767591      1              211248.91      1.260954       8971.3613      12879.845      8762.5022      1078.453      -1751.7841      24678.893     -13978.017      8949.0918      14.8         
     15000   297.83126      40612.535      16884.658      57497.193      210.51854      220.38345      292.15645      119.01573      0.002995509    0.003         -0.0063025233   0.00020379784  0.002995509   -0.006322468    0.00020377707 -11.541937     -18.562442     -9.9244371      10.751163      20.662912     -10.893185      59.454342      59.419165      59.764411      1              211131.37      1.261656       8847.9939      12869.519      8891.1136      1072.9943     -1771.1763      24678.816     -13976.726      8930.9144      15           
     15200   300.71456      40781.129      17048.118      57829.247      106.96631      470.44881      299.05941     -448.6093       0.0030353885   0.00304       -0.005918444    0.00010006347  0.0030353885  -0.0059360274   0.00010005847 -7.9114993     -7.8088808      12.892319      31.33047      -2.7160344      0.82236423     59.456713      59.442131      59.758213      1              211199.49      1.2612491      8960.2673      12923.02       8782.8009      1095.1712     -1693.6796      24690.638     -13977.088      9019.8698      15.2         
     15400   297.81107      40621.715      16883.513      57505.228     -435.45628     -185.24793     -681.28006     -439.84085      0.0030752665   0.00308       -0.0052592448  -0.00040314766  0.0030752665  -0.0052731233  -0.00040322895 -10.9235        3.2152659     -8.5487269      20.181836      11.971376      9.5061515      59.459084      59.481549      59.728145      1              211241.63      1.2609975      8753.1899      12850.78       8974.8526      1091.4061     -1722.2501      24649.195     -13975.458      8951.4865      15.4         
     15600   296.32164      40658.879      16799.074      57457.953      139.58357     -294.29975      135.25215      577.7983       0.0031151429   0.00312       -0.0041226337   0.00026925326  0.0031151429  -0.0041311552   0.00026921702  17.226814      9.8359033      10.617691      17.409778      9.3749972      2.6949636      59.461455      59.549514      59.768322      1              211633.7       1.2586614      8940.7259      12991.974      8725.8728      1082.5481     -1779.6285      24674.889     -13977.503      8917.7575      15.6         
     15800   297.80522      40758.893      16883.181      57642.074      379.4535      -1235.0204      176.99113      2196.3897      0.0031550177   0.00316       -0.0029007279  -0.00082877357  0.0031550177  -0.0029049432  -0.00082911719  9.1311127     -12.441784     -8.3624629      9.1303732     -2.3700621      7.1811078      59.463826      59.622579      59.702712      1              211669.2       1.2584503      8928.9758      12911.458      8776.3565      1079.7719     -1626.9773      24666.003     -13976.695      9062.3308      15.8         
     16000   299.66678      40624.568      16988.717      57613.285     -749.40931     -1684.09       -492.66871     -71.469246      0.0031948909   0.0032        -0.0012940056   5.8788467e-05  0.0031948909  -0.0012948436   5.8786739e-05 -9.4193021      2.3862038     -10.129538      12.303961      4.0557563     -12.311386      59.466197      59.718654      59.755746      1              212207.07      1.2552605      8844.6659      12873.847      8864.6243      1090.892      -1785.6122      24713.565     -13977.415      8950.5382      16           
     16200   296.15436      40686.266      16789.591      57475.857      534.43473      259.15749      241.39952      1102.7472      0.0032347625   0.00324       -0.0019559333   0.00070336126  0.0032347625  -0.0019578486   0.00070311401  14.909459      25.251985      19.632511      6.061766       5.5012144     -26.65301       59.468569      59.679074      59.794261      1              212211.57      1.2552339      8917.641       12935.963      8799.2416      1083.2963     -1782.001       24708.963     -13976.837      8950.1241      16.2         
     16400   300.9103       40613.555      17059.215      57672.77      -44.737244      449.37099      644.13763     -1227.7203      0.0032746325   0.00328       -0.0033410343   0.00034844654  0.0032746325  -0.003346628    0.00034838585  5.6968575     -4.2252709     -8.9864867     -4.5153917      15.929154     -12.183349      59.47094       59.59625       59.773054      1              211850.35      1.2573742      8868.9513      12897.81       8737.74        1082.5833     -1696.3789      24701.286     -13978.436      9026.4707      16.4         
     16600   298.72004      40496.565      16935.044      57431.609      316.97831      213.88714      741.97809     -4.9302804      0.003314501    0.00332       -0.0040104131   0.00045059557  0.003314501   -0.0040184764   0.00045049408 -6.4837044     -15.365932      1.5736484      17.332628      13.450702      16.224353      59.473311      59.556224      59.779158      1              211738.12      1.2580406      8833.8779      12795.789      8805.1439      1068.064      -1721.246       24694.304     -13979.368      8993.6897      16.6         
     16800   298.75063      40461.812      16936.778      57398.59      -1033.0917     -1118.6542     -548.14304     -1432.4779      0.0033543678   0.00336       -0.0043891673  -0.0004629837   0.0033543678  -0.0043988279  -0.00046309091  16.214478      6.8245951      7.3246035      10.261142      7.8599624      8.8501854      59.475682      59.533576      59.724569      1              211472.76      1.2596193      8696.8491      12831.843      8925.4501      1085.9049     -1800.5297      24699.433     -13977.139      8921.7644      16.8         
     17000   299.9762       40622.791      17006.259      57629.049      739.54255      321.09359      1021.7263      875.80774      0.0033942331   0.0034        -0.0062485228  -0.0026970226   0.0033942331  -0.0062681266  -0.0027006661  -5.6283111     -5.2257913     -1.97356        14.710189      2.0900997     -4.0218333      59.478053      59.422394      59.59108       1              210614.44      1.2647526      8902.0853      12883.75       8798.7542      1106.8475     -1829.3757      24738.971     -13978.242      8931.3534      17           
     17200   300.33727      40484.915      17026.728      57511.644      702.731        648.75495     -108.46756      1567.9056      0.0034340967   0.00344       -0.0063399007  -0.0038742524   0.0034340967  -0.0063600832  -0.0038817768  -3.6827415     -22.911059     -30.846655      13.469484      6.5426157     -4.7068036      59.480424      59.41693       59.520738      1              210354.87      1.2663133      8888.7446      12895.955      8753.773       1060.6391     -1838.6793      24702.887     -13978.405      8885.8031      17.2         
     17400   296.6949       40688.432      16820.235      57508.667      0.30346414     65.352838     -692.94834      628.50589      0.0034739588   0.00348       -0.0038185087  -0.0020133351   0.0034739588  -0.0038258178  -0.0020153646  -6.265357      -17.841882     -12.563035      15.390016      9.0248463     -9.3337896      59.482795      59.567699      59.631932      1              211291.04      1.2607026      8954.0556      12983.125      8727.8816      1067.0705     -1788.1667      24724.044     -13979.578      8956.2992      17.4         
     17600   300.54377      40815.454      17038.435      57853.889     -369.20775      425.68813     -1657.0781      123.76671      0.0035138193   0.00352       -0.00081439719 -0.00081411987  0.0035138193  -0.000814729   -0.00081445145  28.148884      27.265295      34.738033      6.2381322      5.0909173     -1.3637305      59.485166      59.747333      59.703588      1              212191.33      1.2553537      8894.4017      12939.011      8999.8307      1073.9286     -1832.228       24717.049     -13976.539      8908.2817      17.6         
     17800   298.16432      40750.6        16903.539      57654.139     -116.61789      152.95305     -28.336058     -474.47067      0.0035536782   0.00356       -0.0011874026  -0.0026477968   0.0035536782  -0.0011881081  -0.0026513084   36.176204      29.160589      20.868908      6.6271985      10.718065      2.4910397      59.487537      59.725029      59.594022      1              211731.29      1.2580812      8975.895       12988.78       8733.8695      1091.2792     -1799.0492      24737.996     -13978.17       8960.7761      17.8         
     18000   298.42175      40554.937      16918.134      57473.071      1224.9198      1562.5746      487.81599      1624.3688      0.0035935355   0.0036        -0.0028334788  -0.0044361875   0.0035935355  -0.0028375007  -0.0044460566  -2.2703844     -9.5024567     -16.716122      15.109394      16.260696     -2.611909       59.489908      59.6266        59.487161      1              211011.73      1.2623714      9032.1165      12881.429      8591.8337      1090.1794     -1766.8009      24705.435     -13979.256      8959.3781      18           
     18200   294.67206      40528.302      16705.556      57233.858      41.476233     -219.91488      752.84568     -408.5021       0.0036333912   0.00364       -0.0026121242  -0.0037719875   0.0036333912  -0.0026155418  -0.0037791194  -11.848824     -13.904826     -18.355557      14.599578      8.3741934     -17.795936      59.492279      59.639836      59.526849      1              211207.79      1.2611995      8828.7046      12821.967      8901.3215      1076.9233     -1829.6736      24707.001     -13977.942      8899.3856      18.2         
     18400   297.96855      40643.457      16892.441      57535.897      37.65382      -171.91295      628.01967     -343.14527      0.0036732454   0.00368       -0.0024470944  -0.0030381179   0.0036732454  -0.0024500934  -0.0030427423   25.110798      8.4255237      14.27665       4.8121602      14.233844     -6.7146553      59.49465       59.649704      59.570699      1              211406.78      1.2600124      8965.4105      12872.724      8778.5805      1058.5325     -1763.3776      24708.254     -13976.666      8968.2096      18.4         
     18600   298.61967      40708.572      16929.354      57637.926      479.34974      243.31682      512.09597      682.63643      0.0037130979   0.00372       -0.002042698   -0.0039374209   0.0037130979  -0.0020447871  -0.003945193   -4.1885921     -11.614468     -8.5571656      18.379885      7.9508303     -0.62559909     59.497021      59.673885      59.516964      1              211310.13      1.2605887      9037.4664      12878.012      8755.6024      1064.9422     -1746.5898      24698.262     -13979.124      8972.5482      18.6         
     18800   296.12038      40536.808      16787.664      57324.473     -373.66677     -417.85961     -1029.4512      326.31053      0.0037529489   0.00376       -0.00096453432 -0.0046556434   0.0037529489  -0.00096499978 -0.0046665146   7.7964363      13.931707      17.704181      15.478124      21.892899     -4.5619387      59.499392      59.738355      59.474048      1              211394.31      1.2600867      8819.1312      12905.067      8890.3411      1069.8279     -1879.0792      24710.136     -13978.616      8852.441       18.8         
     19000   299.16644      40678.334      16960.352      57638.686     -221.19118     -156.31345     -302.4064      -204.8537       0.0037927982   0.0038        -0.0013991629  -0.0069151781   0.0037927982  -0.0014001426  -0.0069391988   18.432168     -9.3520611      3.7722956      27.003848      5.9948975     -7.5628111      59.501763      59.712366      59.339036      1              210831.07      1.2634531      8964.1406      12833.907      8783.4981      1075.7899     -1710.5813      24708.336     -13976.756      9020.9979      19           
     19200   300.05166      40592.702      17010.537      57603.239      1660.5263      1492.1501      1451.5156      2037.9133      0.003832646    0.00384       -0.0012325538  -0.0071728356   0.003832646   -0.001233314   -0.0071986841  -18.841338      10.410891     -28.320943      7.3362267     -12.370949     -13.89773       59.504134      59.722329      59.323641      1              210819.93      1.2635198      9042.071       12919.696      8622.0758      1065.5426     -1776.5317      24696.172     -13976.324      8943.3169      19.2         
     19400   298.32413      40464.901      16912.599      57377.5        505.63392      991.12305      412.60559      113.17312      0.0038724922   0.00388       -0.0020285395  -0.0057232133   0.0038724922  -0.0020305997  -0.0057396537   1.8378293     -11.694887     -7.8411848      7.9506016      10.324752     -2.9931032      59.506506      59.674732      59.410259      1              210967.89      1.2626337      8800.599       12882.182      8707.9218      1086.6121     -1718.5764      24683.064     -13976.901      8987.5864      19.4         
     19600   299.63443      40497.214      16986.883      57484.097     -362.35001      163.53208     -98.845939     -1151.7362      0.0039123368   0.00392       -0.00093155104 -0.0034809499   0.0039123368  -0.0009319852  -0.0034870225   12.29962      -10.351693     -2.585759       4.7139924      3.8918244     -6.1742168      59.508877      59.740328      59.544239      1              211684.52      1.2583592      8738.6071      12847.037      8869.6866      1083.5125     -1761.2148      24697.286     -13977.7        8958.3714      19.6         
     19800   298.03228      40651.394      16896.054      57547.448      391.56663      820.88671      1084.7191     -730.90591      0.0039521798   0.00396       -8.2887991e-05 -0.0028997992   0.0039521798  -8.2891427e-05 -0.0029040117   13.096489      16.209934      35.02945       17.465441      8.06284       -5.5328422      59.511248      59.791074      59.578964      1              211996.34      1.2565083      8910.3458      12799.781      8807.0633      1094.001      -1677.519       24695.29      -13977.568      9040.2028      19.8         
     20000   297.3553       40697.931      16857.675      57555.605      1206.5849      860.76413      1510.4476      1248.5431      0.0039920213   0.004         -7.7980707e-05 -0.0042333211   0.0039920213  -7.7983748e-05 -0.004242307   -2.9008443      0.20026368    -6.1812608      20.957923      15.60284      -6.1632013      59.513619      59.791368      59.499283      1              211722.29      1.2581347      8991.1876      12924.591      8669.262       1069.0374     -1664.6682      24686.076     -13977.555      9043.8531      20           
     20200   298.84809      40671.613      16942.304      57613.916      771.79154      674.64084      497.3487       1143.3851      0.0040318611   0.00404       -0.0002950544  -0.0053445751   0.0040318611  -0.00029509793 -0.0053589084  -23.23964      -4.9788334     -19.32341       2.804265       1.0676791      5.128169       59.51599       59.778388      59.432883      1              211448.52      1.2597637      8930.7767      12874.819      8743.4408      1062.8427     -1670.2368      24708.9       -13978.93       9059.7335      20.2         
     20400   298.40683      40555.97       16917.288      57473.257     -546.21234     -854.82534     -32.19324      -751.61843      0.0040716994   0.00408        0.00036354143 -0.0044684988   0.0040716994   0.00036347536 -0.0044785124   18.319349      1.4128875     -3.8719423      20.32671      -0.046154272   -26.989958      59.518361      59.817769      59.485231      1              211782.62      1.2577763      8802.5381      12904.007      8767.0505      1080.3014     -1717.7637      24698.091     -13978.254      9002.0729      20.4         
     20600   299.47769      40407.203      16977.997      57385.2        135.12503      197.11275      168.68788      39.574473      0.004111536    0.00412       -0.00097320162 -0.0037617391   0.004111536   -0.00097367549 -0.0037688322   12.182234      32.574864      18.749627      7.9971217      3.8929423      0.97961785     59.520732      59.737837      59.527461      1              211658.21      1.2585156      8929.6695      12836.837      8691.4427      1036.8638     -1777.9193      24670.304     -13979.994      8912.3905      20.6         
     20800   300.70489      40644.03       17047.57       57691.6       -86.908932      103.99628     -470.11666      105.39358      0.0041513711   0.00416       -0.003592866   -0.0039264214   0.0041513711  -0.0035993358  -0.00393415    -3.8873363     -14.606094     -9.7857182      12.209951      4.2157966     -7.7528148      59.523103      59.581192      59.517621      1              211076.71      1.2619828      8777.527       12915.521      8853.6845      1091.2691     -1684.5469      24670.358     -13979.783      9006.0282      20.8         
     21000   297.30727      40589.103      16854.952      57444.055      174.6739       49.923416     -419.87259      893.97088      0.0041912046   0.0042        -0.0048152765  -0.0018181751   0.0041912046  -0.0048269073  -0.00181983    -21.977529     -23.72727      -22.683048      16.335496      2.1800347     -19.666049      59.525474      59.508096      59.643594      1              211272.38      1.260814       8816.7989      12976.889      8824.222       1074.3752     -1812.1579      24689.488     -13980.511      8896.8186      21           
     21200   297.55872      40609.1        16869.207      57478.307     -326.7467       204.24954     -613.55807     -570.93158      0.0042310365   0.00424       -0.004962051    0.0012226071   0.0042310365  -0.0049744029   0.0012218603   20.338403     -3.2142093      12.089808      20.456853      3.5532179     -19.482734      59.527845      59.49932       59.825287      1              211893.17      1.2571201      8912.2912      12936.6        8770.3462      1075.2602     -1815.1729      24709.508     -13979.732      8914.6028      21.2         
     21400   299.25489      40570.287      16965.366      57535.653     -589.45246     -977.93056     -793.77624      3.3494351      0.0042708669   0.00428       -0.0066439905   0.0025210697   0.0042708669  -0.00666616     0.0025178972   4.130174       3.6355003      28.349633      21.857422      8.2232393      1.3179402      59.530216      59.398746      59.902873      1              211817.77      1.2575676      8748.9614      12967.168      8905.2887      1062.6094     -1836.0323      24700.258     -13977.966      8886.2596      21.4         
     21600   296.74006      40632.998      16822.795      57455.793     -63.495648     -449.57539      37.601321      221.48713      0.0043106956   0.00432       -0.009221396    0.00099349885  0.0043106956  -0.0092641762   0.00099300566  14.130631      3.201328       11.734849      9.8932581      2.0863292     -18.61323       59.532587      59.244628      59.811597      1              210954.66      1.2627128      8846.6351      13015.906      8732.5098      1070.9542     -1758.0935      24705.184     -13980.098      8966.9926      21.6         
     21800   297.03531      40392.265      16839.533      57231.799     -919.38195     -647.66879     -833.56246     -1276.9146      0.0043505227   0.00436       -0.0099137012   0.00057660252  0.0043505227  -0.0099631692   0.00057643635 -3.1172038     -10.893437     -15.436297      12.976425     -5.317487      -9.9991503      59.534958      59.203231      59.786687      1              210727.86      1.2640719      8732.7789      12867.718      8887.1127      1045.1282     -1855.6989      24692.828     -13977.602      8859.5272      21.8         
     22000   300.79076      40543.168      17052.438      57595.606      44.514437     -658.91025      323.91848      468.53508      0.0043903483   0.0044        -0.0091018827   0.0011190898   0.0043903483  -0.0091435579   0.0011184641  -18.277436     -26.410132      6.5290338      11.446163      5.9338044     -8.4403365      59.537329      59.251774      59.819102      1              211023.39      1.2623016      8909.8858      12853.502      8803.9165      1059.6727     -1799.6324      24693.624     -13977.8        8916.1916      22           
     22200   296.05872      40610.352      16784.169      57394.52      -839.5019      -1099.3024     -299.78917     -1119.4141      0.0044301723   0.00444       -0.0062425243  -8.5098635e-05  0.0044301723  -0.0062620903  -8.5102256e-05  8.3249119     -3.1087265      15.271166      11.682184      7.5559813      4.2036824      59.5397        59.422752      59.747149      1              211386.18      1.2601352      8775.977       12928.445      8925.1243      1068.5344     -1782.088       24671.743     -13977.385      8912.2709      22.2         
     22400   300.63782      40663.372      17043.767      57707.139      439.00571     -18.542055      584.93483      750.62437      0.0044699947   0.00448       -0.0041812933  -0.0011615639   0.0044699947  -0.0041900593  -0.0011622391   3.0305505      16.941078     -0.82087397     13.374877      12.155082     -1.6430126      59.542071      59.546006      59.682827      1              211605.02      1.258832       8951.7676      12994.9        8740.1493      1068.2151     -1819.1803      24706.497     -13978.977      8908.3399      22.4         
     22600   298.81036      40605.313      16940.165      57545.477      1225.8155      848.98955      1629.7353      1198.7215      0.0045098155   0.00452       -0.003661669   -0.0021964242   0.0045098155  -0.0036683893  -0.0021988399   3.1001717     -5.4096042     -13.715472      21.126767      2.9915498     -8.4519926      59.544442      59.577077      59.620992      1              211504.51      1.2594302      8788.9121      12920.122      8869.67        1061.2237     -1748.0798      24691.465     -13978          8965.385       22.6         
     22800   296.70583      40623.855      16820.855      57444.709     -209.0522      -108.97144     -396.41421     -121.77094      0.0045496347   0.00456       -0.0033655554  -0.0027518846   0.0045496347  -0.0033712316  -0.002755678   -15.505678      3.4366703     -3.6866794      13.495673      10.842987     -19.518028      59.546814      59.594784      59.587802      1              211458.01      1.2597071      8785.0569      12915.048      8841.6141      1068.436      -1700.5529      24690.887     -13976.634      9013.6996      22.8         
     23000   303.13937      40532.115      17185.585      57717.7        117.95747      462.01427     -25.74857      -82.393283      0.0045894523   0.0046        -0.0034996242  -0.0026039238   0.0045894523  -0.0035057622  -0.0026073199   10.548535     -1.385326      -13.651173      13.154185      10.199174     -28.145257      59.549185      59.586767      59.596643      1              211469.36      1.2596396      8822.8689      12837.116      8824.8051      1070.3536     -1728.6382      24686.15      -13980.54       8976.9716      23           
     23200   302.07923      40805.407      17125.484      57930.89       967.60856      1366.6068      689.70791      846.51093      0.0046292684   0.00464       -0.0025674232  -0.0015417207   0.0046292684  -0.0025707246  -0.0015429104   16.987384      2.3933215     -1.5619831      26.293665      18.720879     -6.0326769      59.551556      59.642509      59.660112      1              211901.04      1.2570734      8870.6425      13000.215      8780.8925      1092.4985     -1700.4315      24740.558     -13978.968      9061.1584      23.2         
     23400   298.37812      40590.501      16915.66       57506.161      185.2604      -57.882235      538.55938      75.104043      0.0046690828   0.00468       -0.0025753996  -0.00094764374  0.0046690828  -0.0025787216  -0.00094809304  27.431282      18.391308      27.99214       5.5045269      5.1050718     -4.9970523      59.553927      59.642032      59.69561       1              212033.86      1.256286       8919.472       12989.565      8610.2771      1043.9065     -1711.369       24716.621     -13977.971      9027.2807      23.4         
     23600   298.41451      40572.324      16917.723      57490.048     -35.022415     -265.13273      1089.3163     -929.25083      0.0047088957   0.00472       -0.0031957431  -0.0021892689   0.0047088957  -0.0032008604  -0.0021916689  -0.33718622    -18.056646     -6.3603779      7.1870828     -10.411524     -6.7762319      59.556298      59.604938      59.62142       1              211647.06      1.2585819      8706.5523      12985.929      8885.4751      1062.0322     -1783.4965      24694.048     -13978.216      8932.3356      23.6         
     23800   299.35426      40826.825      16971          57797.825     -784.22654     -1219.474       52.728176     -1185.9338      0.004748707    0.00476       -0.0034768824  -0.0027242324   0.004748707   -0.0034829409  -0.0027279499   18.151118      1.1024307     -12.091969     -0.85744509     9.8287539     -14.568429      59.558669      59.588127      59.589455      1              211482.35      1.2595622      8997.6129      12913.948      8940.7576      1076.2363     -1803.5732      24679.316     -13977.472      8898.2704      23.8         
     24000   299.36255      40542.952      16971.47       57514.421     -840.92357     -2163.1028      366.51088     -726.1788       0.0047885167   0.0048        -0.0036479632  -0.0018645062   0.0047885167  -0.0036546333  -0.0018662465   30.885566     -2.9966834     -19.549306      18.280456      15.016042     -15.855151      59.56104       59.577897      59.640825      1              211636.75      1.2586432      8792.6632      12894.107      8906.6965      1083.3332     -1838.0193      24682.304     -13978.133      8866.1518      24           
     24200   297.9224       40649.591      16889.825      57539.416      357.67809      327.72329      619.7595       125.55147      0.0048283249   0.00484       -0.0048123821   0.00081510311  0.0048283249  -0.0048239989   0.00081477109  30.841891      22.424858      21.149553      2.647766       9.2436876     -9.3662671      59.563411      59.508269      59.800938      1              211965.35      1.256692       8896.7042      12968.483      8865.2772      1064.1322     -1856.8056      24690.688     -13978.888      8854.9942      24.2         
     24400   299.49082      40672.067      16978.741      57650.808      855.93051      1057.6096      1864.6777     -354.49572      0.0048681314   0.00488       -0.0081612472   0.0011520999   0.0048681314  -0.0081947325   0.0011514367   19.527654     -5.3761434      23.859263      22.787661      9.9040529     -1.9222768      59.565782      59.30802       59.821074      1              211331.62      1.2604605      8895.8549      12910.672      8733.839       1078.4281     -1652.6877      24684.495     -13978.535      9053.2722      24.4         
     24600   296.76555      40532.833      16824.241      57357.074      657.52123      1124.9173      764.6758       82.970571      0.0049079364   0.00492       -0.0097780685   0.00093598254  0.0049079364  -0.0098261877   0.00093554478 -21.470322     -23.836126     -13.443976      19.723537      5.084497      -13.984234      59.568153      59.211341      59.808161      1              210949.97      1.2627409      8790.6084      12824.089      8888.56        1066.2356     -1765.7509      24706.38      -13977.289      8963.3399      24.6         
     24800   296.55658      40663.655      16812.393      57476.048     -131.19712      155.3075      -267.82705     -281.07179      0.0049477397   0.00496       -0.0088454169   0.0025751218   0.0049477397  -0.0088847698   0.0025718118  -20.566891     -28.681464     -17.647365      3.8697536      11.692567     -6.5110007      59.570524      59.26711       59.906103      1              211502.86      1.25944        8857.8046      12870.464      8862.2135      1081.4992     -1733.7585      24704.497     -13979.064      8991.6741      24.8         
     25000   299.24084      40688.889      16964.57       57653.458     -184.13592     -771.41729     -19.747041      238.75656      0.0049875415   0.005         -0.0066018914   0.0053900257   0.0049875415  -0.0066237803   0.0053755515   13.197335      12.409432      16.59521       25.36034       7.6311969     -17.310052      59.572895      59.401264      60.0743        1              212585.24      1.2530276      8837.9503      12887.123      8889.5242      1073.8976     -1727.4039      24706.278     -13978.48       9000.3933      25           
     25200   295.89229      40625.275      16774.734      57400.009      587.39954      1333.8644      23.878496      404.45568      0.0050273417   0.00504       -0.0064824751   0.0049114605   0.0050273417  -0.0065035776   0.0048994386   20.786379      15.012094      31.300062      18.146059     -4.6420143     -7.7410928      59.575266      59.408404      60.045704      1              212518.05      1.2534237      8912.0947      12803.044      8713.0628      1087.1997     -1622.6924      24711.71      -13979.143      9109.8742      25.2         
     25400   298.75838      40629.455      16937.218      57566.673      220.99706     -706.05507      1299.7378      69.308462      0.0050671403   0.00508       -0.0074206628   0.0024800852   0.0050671403  -0.0074483329   0.0024770148   16.955415      2.0184378      6.0826795      9.9175709      12.098691      3.0155088      59.577637      59.352304      59.900424      1              211812.1       1.2576013      8883.2484      12851.753      8751.3856      1078.4232     -1661.4307      24707.985     -13981.91       9064.6448      25.4         
     25600   297.36072      40797.672      16857.982      57655.654      429.81468     -715.57707      1293.575       711.44611      0.0051069374   0.00512       -0.0075600333   0.00032582792  0.0051069374  -0.0075887552   0.00032577485  6.0961099     -19.560571     -3.8166543      10.673387      16.361663     -0.14081368     59.580008      59.343971      59.771702      1              211335.66      1.2604364      8965.0197      12882.401      8831.8694      1058.9793     -1664.3957      24704.291     -13980.493      9059.4028      25.6         
     25800   294.92152      40590.925      16719.699      57310.624      410.87456      160.28231      855.91865      216.42271      0.0051467328   0.00516       -0.0055785148  -0.0010245887   0.0051467328  -0.0055941328  -0.0010251139   8.6692284     -11.978337     -25.353271      20.22157       3.9816588     -19.77109       59.582379      59.462458      59.691012      1              211480.16      1.2595752      8816.1906      12831.911      8872.5371      1078.8067     -1730.3827      24697.126     -13975.264      8991.4799      25.8         
     26000   296.9733       40585.953      16836.018      57421.972     -902.38389     -783.21371     -1677.0544     -246.88355      0.0051865267   0.0052        -0.0029224956  -0.00066299253  0.0051865267  -0.0029267744  -0.00066321241  31.418172      13.250995      3.5099766      14.782821      1.411474      -5.1149133      59.584751      59.621277      59.712618      1              212130.21      1.2557154      8779.74        12906.216      8893.3604      1071.1394     -1772.1593      24688.441     -13980.785      8935.4976      26           
     26200   298.76119      40665.679      16937.377      57603.057     -235.48607     -1100.8866      60.360388      334.06805      0.005226319    0.00524       -0.0023941955  -0.0010485032   0.005226319   -0.0023970662  -0.0010490532   28.316998      13.430809      1.4232299      8.2281518      15.5147       -4.6338352      59.587122      59.652867      59.689583      1              212169.17      1.2554848      8930.4419      12942.144      8798.4866      1050.4142     -1763.2389      24687.059     -13979.628      8944.1923      26.2         
     26400   295.2489       40642.502      16738.258      57380.761     -1163.329      -1334.234      -555.2832      -1600.4699      0.0052661097   0.00528       -0.003307873   -0.0011890181   0.0052661097  -0.0033133561  -0.0011897255   15.274793      1.6659493      3.0147811      15.301312      3.2584469     -4.1385572      59.589493      59.598233      59.681187      1              211953.47      1.2567625      8926.5259      12921.615      8778.8439      1060.2075     -1740.6047      24675.772     -13979.857      8955.3101      26.4         
     26600   297.54336      40500.64       16868.336      57368.976      75.777931      527.60978     -286.43351     -13.842477      0.0053058988   0.00532       -0.0041812393  -0.0025366749   0.0053058988  -0.0041900051  -0.0025398978  -12.052835      7.811075       17.816818      10.958375      12.139533     -5.902278       59.591864      59.546009      59.600662      1              211490.42      1.2595141      8736.872       12928.032      8848.1201      1058.1486     -1783.8619      24692.406     -13979.077      8929.4677      26.6         
     26800   296.10463      40776.209      16786.772      57562.981      870.05293      1538.9498      1213.0815     -141.87257      0.0053456863   0.00536       -0.0060608049  -0.0042927707   0.0053456863  -0.0060792461  -0.0043020111   3.859967      -2.5376518     -25.681224      9.6344822      13.187527     -2.5724366      59.594235      59.433619      59.495731      1              210727.99      1.2640711      8912.6037      13017.704      8685.6355      1098.0535     -1669.7353      24713.442     -13981.494      9062.2121      26.8         
     27000   297.98951      40531.699      16893.629      57425.328     -760.85747     -1172.8005     -547.37238     -562.39953      0.0053854723   0.0054        -0.0064711424  -0.0030965078   0.0053854723  -0.0064921711  -0.0031013119  -8.7594726     -10.567082     -26.789312      20.749855     -2.9072535     -1.6628503      59.596606      59.409082      59.56721       1              210902.45      1.2630255      8726.4151      12958.287      8864.6536      1086.6602     -1821.7697      24694.872     -13977.419      8895.6829      27           
     27200   294.48477      40449.334      16694.939      57144.272     -829.8063      -1234.1005     -820.33417     -434.98424      0.0054252566   0.00544       -0.0068627965  -7.218721e-05   0.0054252566  -0.0068864538  -7.2189815e-05  7.7671204      12.077967      5.4133189      10.193766      4.2899714     -14.542547      59.598977      59.385663      59.74792       1              211467.29      1.2596518      8805.1401      12918.509      8727.226       1077.8487     -1804.2968      24700.923     -13976.016      8920.6101      27.2         
     27400   297.89872      40600.177      16888.482      57488.66      -256.83475     -53.349657      377.73773     -1094.8923      0.0054650394   0.00548       -0.0081928752   0.0014124712   0.0054650394  -0.0082266213   0.0014114746   27.982952     -4.2897313      12.27391       7.4007239      11.131556     -2.7255882      59.601348      59.306129      59.836632      1              211506.05      1.259421       8787.5327      12885.434      8914.7046      1068.497      -1803.8371      24725.436     -13977.591      8944.0088      27.4         
     27600   298.50891      40679.19       16923.075      57602.265      108.48574     -21.990797      331.23372      16.214284      0.0055048206   0.00552       -0.0088373844   0.002170974    0.0055048206  -0.0088766657   0.0021686208   3.6097818     -5.0399565      7.7935278      8.5531327      6.2192106     -9.5197571      59.603719      59.26759       59.881954      1              211537.12      1.259236       8924.3043      12910.084      8836.3125      1054.7942     -1776.3805      24709.694     -13979.618      8953.6951      27.6         
[...]
    744000   299.36169      40935.458      16971.421      57906.878      269.81411     -87.459404      1007.3429     -110.44114      0.13871792     0.1488        -0.048379388   -0.065266442    0.13871792    -0.04958884    -0.067493755    143.17512      38.983733      8.0672767     -1.339047      -0.91464354    -0.15188036     68.096858      56.903135      55.852418      1              216423.91      1.2308028      8785.8288      13024.012      8778.0982      1046.2988     -1470.4774      24747.807     -13976.11       9301.2202      744          
    744200   297.1179       41081.006      16844.216      57925.221     -264.34823     -810.6314       387.57219     -369.98548      0.13875274     0.14884       -0.051890824   -0.066481279    0.13875274    -0.053285619   -0.068794262    97.093396      7.2759069     -2.482706       17.310432     -3.8680734     -9.4725253      68.099229      56.693165      55.779829      1              215352.58      1.2369258      8864.1033      13077.75       8797.0647      1086.523      -1485.1871      24716.158     -13975.406      9255.5649      744.2        
    744400   296.84099      40935.063      16828.517      57763.58      -1225.3177     -2331.5306     -696.39033     -648.03212      0.13878755     0.14888       -0.053803966   -0.066865403    0.13878755    -0.055305508   -0.069205826    103.88615     -31.102186     -13.473091      5.445256       4.845361       4.1949307      68.1016        56.578767      55.756876      1              214837.07      1.2398938      8753.7812      13000.858      8959.993       1074.9642     -1630.6418      24752.277     -13976.169      9145.4661      744.4        
    744600   297.92317      40860          16889.868      57749.868     -710.7775      -1415.8391     -243.13027     -473.36315      0.13882237     0.14892       -0.054186593   -0.067697804    0.13882237    -0.055709973   -0.070098272    114.58645      6.9532382      10.160281      9.8688726      0.22616481     11.606898      68.103971      56.555888      55.707139      1              214566.1       1.2414597      8793.8967      13008.397      8774.1026      1045.933      -1538.7715      24752.049     -13975.607      9237.6702      744.6        
    744800   297.78884      41161.736      16882.253      58043.989      67.146891     -478.84445     -329.85784      1010.143       0.13885719     0.14896       -0.053524883   -0.067126853    0.13885719    -0.055010598   -0.06948605     94.091388     -5.802825      -25.69882       8.9182192     -6.4045126     -0.86166249     68.106342      56.595455      55.741254      1              214855.19      1.2397893      8968.9709      13139.505      8778.722       1102.64       -1579.6562      24724.622     -13973.068      9171.898       744.8        
    745000   294.5663       41012.737      16699.56       57712.298     -806.21979     -1160.8169     -806.59578     -451.24668      0.138892       0.149         -0.053189982   -0.066317646    0.138892      -0.05465682    -0.06861899     85.364338     -17.259273      0.96137948     11.165484     -9.9393812      6.4687173      68.108713      56.615481      55.789606      1              215125.14      1.2382335      8806.7325      13028.95       8784.878       1090.4179     -1454.2856      24727.708     -13971.663      9301.759       745          
    745200   296.92712      40893.962      16833.4        57727.362     -428.81081     -1098.3506     -591.15968      403.07781      0.13892681     0.14904       -0.05278936    -0.065087623    0.13892681    -0.054233782   -0.067302469    107.86389      17.854424     -4.1783956     -3.3992149      9.3617122      4.5104615      68.111084      56.639436      55.863103      1              215507.19      1.2360384      8849.9283      12946.254      8691.2562      1079.7368     -1429.1325      24730.433     -13974.513      9326.7873      745.2        
    745400   298.17295      41052.045      16904.029      57956.074     -626.69692     -807.59791     -469.0204      -603.47243      0.13896162     0.14908       -0.053666184   -0.064666427    0.13896162    -0.055159901   -0.066852051    135.58179      5.5529233      21.156407      10.225255     -15.544181      0.40454583     68.113455      56.587006      55.88827       1              215412.2       1.2365835      8818.5117      13143.79       8774.6603      1068.6682     -1516.1386      24740.639     -13978.086      9246.4146      745.4        
    745600   298.18505      41063.601      16904.715      57968.315     -83.419194     -971.04663     -27.384616      748.17367      0.13899643     0.14912       -0.054788695   -0.06597359     0.13899643    -0.056346773   -0.068250565    95.092008     -10.322499      5.9537194      1.3164537     -8.2290408      5.0095925      68.115826      56.519884      55.810164      1              214863.47      1.2397415      8781.4973      13144.567      8744.9352      1048.1841     -1421.2381      24742.094     -13976.439      9344.4175      745.6        
    745800   296.69991      41094.914      16820.519      57915.433     -229.13216     -299.56523     -221.17489     -166.65635      0.13903124     0.14916       -0.0541908     -0.066909192    0.13903124    -0.055714422   -0.069252754    115.33896     -15.39396      -21.57149       4.9004535      1.1290698      10.048817      68.118197      56.555636      55.75426       1              214791.5       1.2401569      8851.5066      13062.119      8834.6899      1088.5518     -1519.0681      24750.892     -13973.777      9258.0468      745.8        
    746000   299.97052      40796.634      17005.936      57802.57      -156.14818     -299.2689       282.15326     -451.32888      0.13906605     0.1492        -0.053158219   -0.065492028    0.13906605    -0.054623274   -0.067735121    105.2673       8.4456043     -12.817392      11.129447     -6.8835147      9.5826797      68.120568      56.61738       55.838939      1              215360.07      1.2368828      8751.1715      12965.248      8766.882       1069.4039     -1542.8859      24761.91      -13975.095      9243.9285      746          
    746200   297.82566      41006.077      16884.34       57890.417     -718.93213     -1195.8896     -927.5651      -33.341649      0.13910085     0.14924       -0.053074357   -0.064727747    0.13910085    -0.054534707   -0.066917613    139.18288      9.5361642      18.607925      3.4288373     -4.708738       18.673413      68.122939      56.622395      55.884606      1              215562.8       1.2357196      8892.8483      12967.451      8813.9447      1072.6131     -1497.8769      24733.824     -13976.727      9259.2203      746.2        
    746400   300.87616      41087.429      17057.279      58144.708     -1480.6773     -1970.8952     -1312.8462     -1158.2904      0.13913566     0.14928       -0.05319263    -0.064690861    0.13913566    -0.054659617   -0.066878174    104.65728      3.9818968      13.790132      3.7358367      0.14526615     17.200817      68.12531       56.615323      55.88681       1              215551.87      1.2357822      8764.1785      13157.67       8933.637       1065.0306     -1576.1666      24721.279     -13978.199      9166.9134      746.4        
    746600   299.20013      40831.559      16962.261      57793.821      685.95585     -182.91346      2434.2428     -193.4618       0.13917046     0.14932       -0.054186104   -0.066549133    0.13917046    -0.055709456   -0.068866951    108.92175      4.6366049      8.4688156      1.232498       2.3778079      18.055605      68.127682      56.555917      55.775774      1              214905.37      1.2394998      8772.4069      13013.739      8593.1918      1070.9516     -1386.0628      24745.072     -13977.74       9381.2697      746.6        
    746800   298.45295      40930.448      16919.903      57850.351     -26.796411     -589.62088      72.017555      437.21409      0.13920527     0.14936       -0.054452454   -0.066257563    0.13920527    -0.055991105   -0.068554642    74.823358     -14.770684     -44.022594      8.6285838      7.4028233      5.8493928      68.130053      56.53999       55.793196      1              214919.44      1.2394187      8784.4995      13003.954      8783.3367      1060.9531     -1477.4383      24749.073     -13973.929      9297.7053      746.8        
    747000   299.9282       41081.392      17003.537      58084.929     -447.30399     -1039.4577      648.84329     -951.29759      0.13924007     0.1494        -0.053564569   -0.065459935    0.13924007    -0.055052529   -0.067700779    109.52538     -6.4807806      24.588885      6.9901854      6.0121507     -0.386123       68.132424      56.593082      55.840856      1              215312.5       1.237156       8767.088       13070.681      8819.6176      1093.5208     -1461.8568      24767.001     -13974.66       9330.484       747          
    747200   299.34223      40814.012      16970.318      57784.329      329.13623      432.72659      100.30346      454.37864      0.13927487     0.14944       -0.053022535   -0.066511647    0.13927487    -0.054479982   -0.068826793    115.49677      3.6393938      14.902372      5.8921528      2.4124234      11.393438      68.134795      56.625494      55.778014      1              215200.86      1.2377979      8870.2582      12953.033      8647.9886      1082.5074     -1523.5879      24757.448     -13973.635      9260.225       747.2        
    747400   296.19496      41158.388      16791.892      57950.28      -132.58961     -1782.2978      755.96811      628.56086      0.13930967     0.14948       -0.05240258    -0.067958029    0.13930967    -0.053825529   -0.070377432    125.56736     -1.2838726      10.769577     -6.539671       0.45726203     1.3078728      68.137166      56.662564      55.691589      1              215015.57      1.2388646      8947.4755      13119.942      8736.5413      1089.0269     -1510.8567      24748.631     -13972.373      9265.4017      747.4        
    747600   298.91003      41079.316      16945.815      58025.131     -585.42127     -792.88947     -27.509763     -935.86456      0.13934446     0.14952       -0.051995346   -0.068506495    0.13934446    -0.053395867   -0.070966062    110.533       -5.7327229     -12.075203      12.877038      10.897417      0.20454848     68.139537      56.686915      55.658817      1              214988.87      1.2390184      8863.8417      12962.716      8910.6399      1097.6113     -1527.4249      24745.294     -13973.362      9244.5069      747.6        
    747800   298.02269      40968.966      16895.51       57864.476     -1057.8824     -1695.6032     -731.19739     -746.84662      0.13937926     0.14956       -0.052182165   -0.068262285    0.13937926    -0.053592952   -0.070703926    125.25849      20.602577     -3.9830913      10.201018     -12.245503     -1.4039541      68.141908      56.675744      55.67341       1              215010.34      1.2388947      8768.5868      13028.316      8842.6283      1095.2884     -1541.4798      24750.718     -13975.091      9234.1467      747.8        
    748000   295.49823      40965.259      16752.393      57717.653     -523.09791     -977.2275      -690.17041      98.104175      0.13941406     0.1496        -0.052950698   -0.06809414     0.13941406    -0.054404126   -0.070523478    140.20707     -2.2323246     -1.5674384      8.1343676      2.4339307      11.809859      68.144279      56.629789      55.683457      1              214882.24      1.2396332      8905.2625      12951.264      8770.154       1074.1262     -1501.0004      24737.693     -13972.24       9264.4526      748          
    748200   297.60582      40894.654      16871.877      57766.531     -727.78844     -893.67129     -929.84555     -359.84847      0.13944885     0.14964       -0.053283358   -0.067851847    0.13944885    -0.054755447   -0.070263514    122.12188      2.3912472      5.0249364      22.352451      2.7562304     -2.5096056      68.14665       56.609897      55.697934      1              214870.09      1.2397033      8755.7876      13028.452      8844.5982      1083.4064     -1603.9975      24758.921     -13972.513      9182.4102      748.2        
    748400   299.71539      40996.97       16991.473      57988.443      464.60261     -1216.255       1143.8553      1466.2075      0.13948364     0.14968       -0.05348099    -0.068491445    0.13948364    -0.054964224   -0.070949905    135.08217     -14.485176     -3.0976451      10.642105     -0.069681872    12.610351      68.149021      56.59808       55.659717      1              214685.3       1.2407704      8844.7929      13025.385      8659.3549      1080.1037     -1393.2694      24754.233     -13973.63       9387.3343      748.4        
    748600   296.86766      40830.678      16830.029      57660.707     -326.55213     -1303.3109      1006.68       -683.02557      0.13951843     0.14972       -0.052177318   -0.068218527    0.13951843    -0.053587839   -0.070656962    117.43539      2.5387858     -1.7899205     -1.9615365     -9.6989011      15.500227      68.151392      56.676034      55.676024      1              215051.46      1.2386578      8655.8895      13051.316      8763.9582      1091.4353     -1517.6539      24760.252     -13974.519      9268.0791      748.6        
    748800   295.81         40974.306      16770.069      57744.374     -693.73722     -2193.1318     -334.64454      446.56469      0.13955322     0.14976       -0.052103328   -0.068105611    0.13955322    -0.053509778   -0.070535788    107.74789      14.308519     -5.5798483      10.435489      9.9455526      16.276108      68.153763      56.680458      55.682771      1              215101.8       1.2383679      8860.8749      13090.37       8734.9834      1078.5448     -1544.0393      24727.718     -13974.146      9209.5329      748.8        
    749000   296.44218      41102.718      16805.908      57908.625     -1226.1128     -2636.3501     -744.21498     -297.77332      0.13958801     0.1498        -0.053238535   -0.067603608    0.13958801    -0.054708102   -0.069997242    103.72218      2.6164534      10.055509      14.498078      1.9539217      3.6795195      68.156134      56.612578      55.712767      1              214967.4       1.2391421      8781.0869      13200.087      8815.8609      1094.8353     -1554.9438      24742.731     -13976.941      9210.8471      749          
    749200   298.79038      41111.409      16939.032      58050.441     -213.12755     -757.23247     -643.46261      761.31243      0.1396228      0.14984       -0.053884932   -0.06611986     0.1396228     -0.055391081   -0.068407178    103.72119     -0.36129324    -15.825809      5.9084261     -3.7022956      4.0614672      68.158505      56.573926      55.801424      1              215169.97      1.2379756      8824.6966      13133.438      8863.3848      1096.1724     -1580.0312      24750.443     -13976.694      9193.7179      749.2        
    749400   295.13652      41057.547      16731.887      57789.434     -1522.173      -2220.2365     -2017.5134     -328.76922      0.13965759     0.14988       -0.055009676   -0.064154202    0.13965759    -0.05658059    -0.066304561    125.25655     -0.22666598    -1.0535486      13.848373     -6.5125807     -6.7456927      68.160876      56.50667       55.918877      1              215374.02      1.2368027      8784.812       13060.439      8911.5801      1094.6629     -1513.5989      24695.994     -13976.342      9206.0529      749.4        
    749600   298.78049      40930.294      16938.471      57868.765     -578.5813      -1063.2111      682.19039     -1354.7232      0.13969237     0.14992       -0.054932655   -0.062856372    0.13969237    -0.056499089   -0.064918723    130.89205     -11.193398      9.7005108      11.203305      0.10426538     16.914102      68.163247      56.511276      55.996425      1              215697.79      1.2349462      8682.4599      13032.732      8922.9869      1081.659      -1551.1922      24736.287     -13974.639      9210.4554      749.6        
    749800   299.05929      41038.39       16954.277      57992.667      11.958769      85.180852     -470.70699      421.40244      0.13972716     0.14996       -0.054302409   -0.063385098    0.13972716    -0.055832432   -0.065483072    124.51355     -5.8812007      12.663555      3.841023      -5.7059478      11.64194       68.165618      56.548962      55.964832      1              215727.36      1.2347769      8855.923       13115.166      8714.9475      1117.8765     -1538.1152      24750.998     -13978.406      9234.4764      749.8        
    750000   297.077        41008.82       16841.897      57850.718     -896.32665     -1611.4067     -520.2211      -557.35215      0.13976194     0.15          -0.05443734    -0.065581489    0.13976194    -0.055975121   -0.067830856    108.34393      8.5029735      13.984319      1.2936515      5.4458523      17.926423      68.16799       56.540894      55.833593      1              215198.25      1.2378129      8798.8884      13075.486      8796.265       1081.4608     -1490.1461      24722.492     -13975.626      9256.7205      750          
Loop time of 14470.4 on 16 procs for 750000 steps with 19020 atoms

Performance: 4.478 ns/day, 5.359 hours/ns, 51.830 timesteps/s, 985.803 katom-step/s
98.9% CPU use with 16 MPI tasks x no OpenMP threads

MPI task timing breakdown:
Section |  min time  |  avg time  |  max time  |%varavg| %total
---------------------------------------------------------------
Pair    | 9147.7     | 9437.8     | 9965.5     | 190.3 | 65.22
Bond    | 2342       | 2386.2     | 2490.6     |  70.4 | 16.49
Kspace  | 712.55     | 1346       | 1680.1     | 588.4 |  9.30
Neigh   | 628.75     | 628.92     | 629.11     |   0.5 |  4.35
Comm    | 180.94     | 184.52     | 187.98     |  14.2 |  1.28
Output  | 82.844     | 82.85      | 82.921     |   0.2 |  0.57
Modify  | 259.06     | 341.44     | 381.99     | 253.1 |  2.36
Other   |            | 62.73      |            |       |  0.43

Nlocal:        1188.75 ave        1243 max        1137 min
Histogram: 1 1 1 1 2 6 2 1 0 1
Nghost:        11736.9 ave       11808 max       11683 min
Histogram: 3 1 4 1 1 1 1 1 1 2
Neighs:         603449 ave      637807 max      557712 min
Histogram: 2 2 0 0 3 0 2 2 3 2

Total # of neighbors = 9655181
Ave neighs/atom = 507.63307
Ave special neighs/atom = 5.6187171
Neighbor list builds = 27983
Dangerous builds = 0

#-------------------Wrap up-------------------
write_restart  ${myid}.restart
write_restart  tensile_1_PEEK_pxld_90_replicate_3_FF_PCFF.restart
System init for write_restart ...
PPPM initialization ...
  using 12-bit tables for long-range coulomb (../kspace.cpp:342)
  G vector (1/distance) = 0.17530764
  grid = 15 15 15
  stencil order = 5
  estimated absolute RMS force accuracy = 0.021192279
  estimated relative force accuracy = 6.3819919e-05
  using double precision KISS FFT
  3d grid and FFT values/proc = 1690 256
Generated 28 of 28 mixed pair_coeff terms from sixthpower/sixthpower mixing rule
write_data     ${myid}.data
write_data     tensile_1_PEEK_pxld_90_replicate_3_FF_PCFF.data
System init for write_data ...
PPPM initialization ...
  using 12-bit tables for long-range coulomb (../kspace.cpp:342)
  G vector (1/distance) = 0.17530764
  grid = 15 15 15
  stencil order = 5
  estimated absolute RMS force accuracy = 0.021192279
  estimated relative force accuracy = 6.3819919e-05
  using double precision KISS FFT
  3d grid and FFT values/proc = 1690 256
Generated 28 of 28 mixed pair_coeff terms from sixthpower/sixthpower mixing rule
Total wall time: 4:01:11
