thermo_style   custom step temp pe ke etotal press pxx pyy pzz v_etrue v_eengx v_eengy v_eengz v_etruex v_etruey v_etruez                f_sxx_ave f_syy_ave f_szz_ave f_sxy_ave f_sxz_ave f_syz_ave lx ly lz v_dir vol density ebond eangle edihed                eimp evdwl ecoul elong epair v_Time

restart        ${nsteps} rst1.a.${myid} rst2.a.${myid}
restart        200 rst1.a.${myid} rst2.a.${myid}
restart        200 rst1.a.tensile_2_AroCy_L10_pxld_97_replicate_1_FF_PCFF rst2.a.${myid}
restart        200 rst1.a.tensile_2_AroCy_L10_pxld_97_replicate_1_FF_PCFF rst2.a.tensile_2_AroCy_L10_pxld_97_replicate_1_FF_PCFF
dump           6 all atom 10000 dump.${myid} #every picosecond
dump           6 all atom 10000 dump.tensile_2_AroCy_L10_pxld_97_replicate_1_FF_PCFF 
dump_modify    6 scale no sort id

#-------------------Run-------------------
run            ${steps}
run            750000

CITE-CITE-CITE-CITE-CITE-CITE-CITE-CITE-CITE-CITE-CITE-CITE-CITE

Your simulation uses code contributions which should be cited:

- Type Label Framework: https://doi.org/10.1021/acs.jpcb.3c08419

@Article{Gissinger24,
 author = {Jacob R. Gissinger, Ilia Nikiforov, Yaser Afshar, Brendon Waters, Moon-ki Choi, Daniel S. Karls, Alexander Stukowski, Wonpil Im, Hendrik Heinz, Axel Kohlmeyer, and Ellad B. Tadmor},
 title = {Type Label Framework for Bonded Force Fields in LAMMPS},
 journal = {J. Phys. Chem. B},
 year =    2024,
 volume =  128,
 number =  13,
 pages =   {3282–-3297}
}

CITE-CITE-CITE-CITE-CITE-CITE-CITE-CITE-CITE-CITE-CITE-CITE-CITE

PPPM initialization ...
  using 12-bit tables for long-range coulomb (../kspace.cpp:342)
  G vector (1/distance) = 0.18091301
  grid = 16 16 15
  stencil order = 5
  estimated absolute RMS force accuracy = 0.028767856
  estimated relative force accuracy = 8.6633544e-05
  using double precision KISS FFT
  3d grid and FFT values/proc = 1521 256
Generated 45 of 45 mixed pair_coeff terms from sixthpower/sixthpower mixing rule
Neighbor list info ...
  update: every = 1 steps, delay = 0 steps, check = yes
  max neighbors/atom: 5000, page size: 100000
  master list distance cutoff = 14
  ghost atom cutoff = 14
  binsize = 7, bins = 10 9 8
  1 neighbor lists, perpetual/occasional/extra = 1 0 0
  (1) pair lj/class2/coul/long, perpetual
      attributes: half, newton on
      pair build: half/bin/newton
      stencil: half/bin/3d
      bin: standard
WARNING: Inconsistent image flags (../domain.cpp:1051)
Per MPI rank memory allocation (min/avg/max) = 20.24 | 20.42 | 20.64 Mbytes
   Step          Temp          PotEng         KinEng         TotEng         Press           Pxx            Pyy            Pzz          v_etrue        v_eengx        v_eengy        v_eengz        v_etruex       v_etruey       v_etruez      f_sxx_ave      f_syy_ave      f_szz_ave      f_sxy_ave      f_sxz_ave      f_syz_ave          Lx             Ly             Lz           v_dir          Volume        Density         E_bond        E_angle        E_dihed        E_impro         E_vdwl         E_coul         E_long         E_pair         v_Time    
         0   298           -16453.368      17821.59       1368.2216      619.72144      332.20278      516.76441      1010.1971      0              2.1873689e-16  6.7872001e-16  2.624639e-16   2.220446e-16   6.6613381e-16  2.220446e-16   0              0              0              0              0              0              64.9678        62.813183      54.144035      2              220952.83      1.2453504      11130.16       12135.622      2636.8118      856.69922      1321.6792     -17893.456     -26640.884     -43212.661      0            
       200   297.22156     -16055.822      17775.036      1719.214      -160.71994     -845.22899      303.21189      59.857265      3.99992e-05   -0.00014649316  4e-05         -0.00086949736 -0.00014650389  3.99992e-05   -0.0008698756   1.1703739      41.81775       19.747743     -0.0019199522   7.7372994     -0.60826457     64.958283      62.815696      54.096957      2              220737.21      1.2465669      11361.164      12349.016      2555.7142      886.36306      1314.5568     -17882.532     -26640.104     -43208.079      0.2          
       400   298.89724     -16154.057      17875.248      1721.1907      814.47891      104.83509      1065.7964      1272.8053      7.99968e-05    0.00023619365  8e-05         -0.0027195278   0.00023616576  7.99968e-05   -0.0027232324  -5.6673673      21.21506      -11.133629      5.908657      -4.7681781     -0.45100533     64.983145      62.818208      53.996789      2              220421.63      1.2483517      11409.724      12321.711      2473.7596      882.03084      1319.5563     -17919.522     -26641.318     -43241.284      0.4          
       600   295.71009     -16257.029      17684.644      1427.6152      386.69257      847.89508      484.66199     -172.47935      0.0001199928  -0.00090274834  0.00012       -0.0029609701  -0.00090315607  0.0001199928  -0.0029653624   14.658251     -8.7572418     -6.2542677      4.1666381     -4.1377142     -5.8137214      64.90915       62.820721      53.983716      2              220126.14      1.2500274      11262.41       12222.508      2640.156       859.14892      1301.3511     -17901.244     -26641.359     -43241.251      0.6          
       800   296.44685     -16038.707      17728.705      1689.998      -448.19317      312.42221     -1260.3487     -396.653        0.0001599872  -0.0030477031   0.00016       -0.0013939447  -0.0030523568   0.0001599872  -0.0013949171   8.9781397     -4.4528381     -23.405731      12.969252     -3.5560608     -7.0263127      64.769797      62.823233      54.068561      2              220007.57      1.250701       11219.474      12265.546      2817.939       870.47119      1289.9752     -17860.615     -26641.498     -43212.137      0.8          
      1000   298.31682     -16145.363      17840.537      1695.1743      54.182923     -821.69597      417.60312      566.64162      0.00019998    -0.0044077976   0.0002         0.00091847191 -0.0044175405   0.00019998     0.00091805037 -5.9471997     -11.608599     -10.752464     -1.8656149      14.924163     -16.671596      64.681435      62.825746      54.193765      2              220225         1.2494662      11367.057      12126.021      2719.6836      872.33762      1286.7232     -17875.85      -26641.335     -43230.461      1            
      1200   298.26901     -16465.912      17837.677      1371.7652     -83.111519     -812.73674      82.766674      480.63551      0.0002399712  -0.005920371    0.00024        0.0043361337  -0.0059379659   0.0002399712   0.0043267598  -2.1109153     -8.3829745     -0.3177768      20.025257      4.5325368      0.51386026     64.583166      62.828258      54.378811      2              220650.06      1.2470593      11019.974      12191.608      2711.9901      871.40382      1251.0315     -17870.107     -26641.813     -43260.888      1.2          
      1400   300.90532     -16264.677      17995.339      1730.6626     -750.96987     -1170.6216     -311.50344     -770.78459      0.00027996081 -0.0076425866   0.00028        0.0054091369  -0.0076719408   0.00027996081  0.0053945601   12.612246      17.530127      16.098706      5.2652194     -9.5325459      8.6911056      64.471278      62.830771      54.436907      2              220511.94      1.2478404      11113.424      12202.567      2783.8032      871.1379       1304.3933     -17899.258     -26640.743     -43235.609      1.4          
      1600   298.3835      -16081.195      17844.525      1763.3295     -290.77059     -660.83593     -390.64966      179.17384      0.00031994881 -0.0073948855   0.00032        0.0053391329  -0.0074223632   0.00031994881  0.0053249303  -32.474831      9.7405996     -0.25027208     8.8168443      10.821139      8.1578111      64.48737       62.833283      54.433117      2              220560.44      1.247566       11337.232      12192.199      2742.1728      884.75738      1314.3951     -17911.188     -26640.763     -43237.555      1.6          
      1800   297.59974     -16301.634      17797.652      1496.0183      252.53092      171.92826      472.52981      113.13468      0.00035993522 -0.0069376231   0.00036        0.0046608057  -0.0069618003   0.00035993522  0.0046499778   7.9901767      20.785873      23.845741      2.915682       17.866172     -0.35852533     64.517078      62.835796      54.39639       2              220521.98      1.2477836      11130.659      12373.166      2594.786       877.76192      1250.0049     -17887.099     -26640.912     -43278.006      1.8          
      2000   300.59962     -16085.141      17977.057      1891.9163      186.57153      833.68966      302.11239     -576.08745      0.00039992002 -0.0068928523   0.0004         0.0022649052  -0.0069167178   0.00039992002  0.0022623441  -6.8383312      16.466228      6.9254481      9.0439338     -5.5840918     -6.7738558      64.519986      62.838308      54.266666      2              220014.8       1.25066        11255.713      12217.522      2838.2982      894.9741       1244.6786     -17894.198     -26642.128     -43291.648      2            
      2200   298.15244     -16163.054      17830.706      1667.6522     -203.93469     -47.257722      68.980428     -633.52678      0.00043990323 -0.0050325223   0.00044        0.0011106691  -0.0050452281   0.00043990323  0.0011100527  -15.353868     -14.530067     -7.1768868      16.335962      19.052685     -1.6525167      64.640848      62.840821      54.204171      2              220181.89      1.2497109      11329.923      12212.56       2680.4227      858.92435      1304.8545     -17908.853     -26640.886     -43244.884      2.2          
      2400   296.94974     -16195.952      17758.78       1562.8275     -177.03648     -71.393476     -436.46796     -23.248012      0.00047988484 -0.0028252045   0.00048        0.00040825824 -0.0028292029   0.00047988484  0.00040817492  2.5750506      14.325414     -6.2131458      5.8826242      4.4439305     -24.269496      64.784253      62.843333      54.16614       2              220524.35      1.2477702      11187.452      12366.844      2614.7001      869.25642      1290.1844     -17884.315     -26640.073     -43234.204      2.4          
      2600   300.31916     -16237.143      17960.285      1723.1416      658.8966       1629.8441     -324.78067      671.62639      0.00051986485 -0.0022960458   0.00052        5.1705816e-05 -0.0022986857   0.00051986485  5.1704479e-05  9.3873609      17.502594     -0.54817817     18.577404     -10.970523      0.63966675     64.818631      62.845846      54.146834      2              220571.55      1.2475031      11317.981      12251.472      2545.0409      880.47777      1296.0258     -17887.599     -26640.542     -43232.115      2.6          
      2800   302.60473     -16073.568      18096.971      2023.4034     -343.97416     -1502.5611      578.4348      -107.79614      0.00055984326 -0.0025165353   0.00056        0.00040240532 -0.0025197071   0.00055984326  0.00040232437  14.199441      29.281409     -3.4030257      5.3896895      11.851163      9.1061788      64.804306      62.848358      54.165823      2              220608.96      1.2472916      11310.725      12314.532      2653.6155      880.2084       1301.7733     -17894.353     -26640.069     -43232.649      2.8          
      3000   295.5065      -16009.946      17672.468      1662.5226     -0.45021026    -687.40443     -806.36905      1492.4228      0.00059982007 -0.0032091124   0.0006         0.00098742006 -0.0032142726   0.00059982007  0.00098693288 -15.731652     -5.581226      -1.8410225      13.347775      7.3062733     -8.639675       64.759311      62.850871      54.197498      2              220593.52      1.2473789      11351.206      12324.123      2664.8754      856.34246      1304.7162     -17870.306     -26640.902     -43206.492      3            
      3200   298.0798      -16125.895      17826.362      1700.4672      219.99202      82.714576     -1.6358853      578.89737      0.00063979529 -0.0034725056   0.00064        0.0021085712  -0.0034785488   0.00063979529  0.0021063513   14.453336      23.444255     -10.420441      6.1869674      7.5301449     -23.517596      64.742199      62.853383      54.258201      2              220791.07      1.2462628      11306.883      12285.643      2628.8295      890.30362      1286.5081     -17883.269     -26640.794     -43237.555      3.2          
      3400   299.46672     -15960.214      17909.305      1949.0915     -332.18333     -17.894269     -367.2372      -611.41852      0.0006797689  -0.0051837302   0.00068        0.0033742734  -0.0051972123   0.0006797689   0.0033685934   11.648515      25.376369      16.908531      24.212496      11.804371      2.8375416      64.631024      62.855896      54.326732      2              220699.14      1.246782       11318.635      12431.47       2678.4274      876.02993      1279.1892     -17903.32      -26640.646     -43264.777      3.4          
      3600   296.12401     -16135.299      17709.398      1574.0992     -704.2406      -229.3017      -108.46742     -1774.9527      0.00071974092 -0.0076070701   0.00072        0.0025381984  -0.0076361514   0.00071974092  0.0025349827  -9.2658292      4.7014947      10.509767      5.7389563      2.5363401      2.959447       64.473585      62.858409      54.281463      2              219986.86      1.2508188      11236.323      12332.139      2673.637       887.52264      1268.4004     -17893.957     -26639.363     -43264.92       3.6          
      3800   297.52728     -16163.044      17793.319      1630.2747     -531.37111     -362.2383      -883.46454     -348.41049      0.00075971135 -0.0076797959   0.00076        0.0011824867  -0.0077094374   0.00075971135  0.0011817881  -13.517642      5.3947804     -3.9633551      3.9911183      2.8305587      14.039894      64.46886       62.860921      54.208059      2              219682.06      1.2525543      11215.231      12385.854      2730.9421      873.35382      1179.3913     -17908.296     -26639.521     -43368.426      3.8          
      4000   301.83888     -16067.371      18051.17       1983.7988      311.7473      -193.26442      178.61706      949.88925      0.00079968017 -0.0069490866   0.0008         0.0014810227  -0.0069733439   0.00079968017  0.0014799271  -20.90823      -2.3360722     -21.785614      12.868498      9.7659462      3.8220595      64.516333      62.863434      54.224223      2              219918.17      1.2512095      11341.982      12294.913      2725.9828      884.36167      1238.2061     -17911.543     -26641.274     -43314.611      4            
      4200   297.80875     -16221.503      17810.152      1588.6493      421.24293      876.15166      519.31322     -131.73609      0.0008396474  -0.0057069015   0.00084        0.0028526358  -0.0057232481   0.0008396474   0.0028485748  -0.67467577     3.215815       4.4478276     -0.035818731    11.813113     -9.051282       64.597035      62.865946      54.298488      2              220503.65      1.2478873      11328.13       12247.07       2565.1705      868.39077      1295.9893     -17885.093     -26641.16      -43230.264      4.2          
      4400   296.45405     -16033.933      17729.135      1695.2021      288.87633     -449.12703      399.46985      916.28619      0.00087961303 -0.0039042332   0.00088        0.0035086582  -0.0039118746   0.00087961303  0.0035025172   1.2685085     -3.726776       14.535016     -7.4047107      0.21755053     1.0283764      64.71415       62.868459      54.334008      2              221056.76      1.2447649      11268.711      12374.287      2616.4577      881.54516      1367.5271     -17902.539     -26639.923     -43174.935      4.4          
      4600   300.24463     -16078.058      17955.827      1877.7697     -1152.0757     -1870.6281     -724.47277     -861.12621      0.00091957706 -0.0021550292   0.00092        0.0033758422  -0.0021573546   0.00091957706  0.0033701569   26.992777      13.359442      21.579272      13.489072      19.590263      12.139842      64.827792      62.870971      54.326817      2              221424.49      1.2426977      11247.397      12298.253      2749.0816      880.29265      1255.9141     -17869.511     -26639.485     -43253.082      4.6          
      4800   297.36486     -16232.348      17783.605      1551.2571      290.10683     -272.57331     -471.20054      1614.0943      0.00095953949 -0.0021268174   0.00096        0.0007645276  -0.0021290823   0.00095953949  0.0007642355  -3.6994366      36.900401      10.298801     -5.6847525      5.1300829      12.369311      64.829625      62.873484      54.185429      2              220863.3       1.2458553      11169.064      12397.348      2549.8451      859.48831      1321.338      -17888.133     -26641.298     -43208.093      4.8          
      5000   299.04811     -16089.403      17884.271      1794.8673      291.36263      938.29121     -1216.2338      1152.0305      0.00099950033 -0.0031310935   0.001         -0.0022191145  -0.0031360056   0.00099950033 -0.0022215804   1.6955925      17.416698     -9.7251896      2.4644799      6.8859054      3.198154       64.76438       62.875996      54.023883      2              219992         1.2507896      11365.079      12295.349      2628.7417      865.33758      1276.2018     -17880.294     -26639.818     -43243.91       5            
      5200   296.16929     -16274.275      17712.106      1437.831      -1102.2548     -1255.0464     -529.21188     -1522.5061      0.0010394596  -0.0034824953   0.00104       -0.0028638285  -0.0034885733   0.0010394596  -0.0028679371  -0.89789822     8.7654364     -5.4676822      5.41495        9.0209141     -2.0959795      64.74155       62.878509      53.988976      2              219781.14      1.2519896      11126.346      12248.389      2745.6732      879.87542      1263.4374     -17897.43      -26640.566     -43274.559      5.2          
      5400   298.62401     -16252.069      17858.908      1606.8382      355.48585      450.95469      150.93251      464.57035      0.0010794172  -0.0028741873   0.00108       -0.0043349924  -0.0028783257   0.0010794172  -0.0043444157  -15.263915     -9.9123973      0.23531569     4.421887       7.7214737      9.4088013      64.78107       62.881021      53.909321      2              219599.61      1.2530246      11125.395      12275.491      2730.8687      873.44961      1296.9399     -17914.068     -26640.145     -43257.273      5.4          
      5600   298.28973     -16150.188      17838.917      1688.7285      785.88302      946.83695     -285.00446      1695.8166      0.0011193733  -0.0016584756   0.00112       -0.0053423374  -0.0016598524   0.0011193733  -0.0053566587   0.80601974    -3.4180968     -1.7677007      3.627658       9.5513804      14.812142      64.860052      62.883534      53.854779      2              219653.68      1.2527161      11380.597      12292.078      2508.8423      865.52309      1375.5857     -17931.857     -26640.958     -43197.229      5.6          
      5800   293.26671     -16219.056      17538.52       1319.4644     -405.77221      2.2128522     -525.48859     -694.04089      0.0011593277  -0.00088073769  0.00116       -0.00420548    -0.00088112577  0.0011593277  -0.0042143479   5.4443928     -16.302233     -27.726645      0.83068623     3.0455769      0.22989335     64.91058       62.886046      53.916333      2              220084.84      1.250262       11207.169      12267.936      2675.7804      875.20995      1280.2823     -17884.89      -26640.543     -43245.15       5.8          
      6000   299.27262     -16311.345      17897.697      1586.3525      145.53959     -565.05903     -159.7676       1161.4454      0.0011992806  -0.00097973473  0.0012        -0.0029645231  -0.00098021499  0.0011992806  -0.002968926    3.1008344      12.681959      0.17334344    -4.8861156      8.9527034     -11.591192      64.904149      62.888559      53.983524      2              220346.08      1.2487797      11208.952      12186.542      2635.6209      886.61457      1341.6017     -17930.311     -26640.365     -43229.074      6            
      6200   297.39895     -15988.068      17785.645      1797.5766     -482.33342     -538.91844      349.00988     -1257.0917      0.0012392318  -0.0018928287   0.00124       -0.0011605025  -0.0018946224   0.0012392318  -0.0011611764   4.7863873      5.2491777     -6.1295344      8.0901756     -13.89436      -11.560939      64.844827      62.891071      54.081201      2              220551.82      1.2476147      11212.441      12351.906      2739.52        890.78036      1346.6394     -17888.222     -26641.132     -43182.715      6.2          
      6400   297.57793     -16290.754      17796.348      1505.5938      186.88927     -548.85504      655.41428      454.10858      0.0012791815  -0.0029885797   0.00128       -0.0015674576  -0.0029930545   0.0012791815  -0.0015686873   12.477951      25.247592      19.94094       7.8998496     -5.0002871     -5.9105991      64.773638      62.893584      54.059166      2              220228.73      1.2494451      11145.303      12277.768      2663.973       867.94381      1295.1384     -17900.519     -26640.361     -43245.742      6.4          
      6600   299.05711     -16311.374      17884.809      1573.4348      305.92307      334.47957      237.45973      345.82991      0.0013191296  -0.003907447    0.00132       -0.0016636713  -0.0039151011   0.0013191296  -0.0016650568  -17.403205      15.412006     -4.2108539      22.605771     -6.4171865     -0.4982246      64.713942      62.896096      54.053957      2              220013.35      1.2506682      11276.507      12343.948      2508.2879      861.82705      1201.0641     -17863.308     -26639.7       -43301.944      6.6          
      6800   297.48049     -16102.807      17790.521      1687.7141      148.31261      829.92935     -391.93151      6.9399873      0.001359076   -0.0032854961   0.00136       -0.0018084634  -0.0032909052   0.001359076   -0.0018101007  -0.28535455     23.093855      1.8642952      5.9028366      14.087277      15.33815       64.754348      62.898609      54.046117      2              220127.59      1.2500192      11276.157      12325.967      2601.2399      888.5132       1312.6146     -17867.435     -26639.864     -43194.684      6.8          
      7000   298.37651     -16124.066      17844.106      1720.0404     -545.55767      55.044612     -1127.7344     -563.98322      0.0013990209  -0.0015140474   0.0014        -0.0017370136  -0.0015151948   0.0013990209  -0.0017385239  -10.831061     -17.518399     -1.8916395      12.006318      2.731598      -2.6177789      64.869436      62.901121      54.049986      2              220543.41      1.2476623      11056.289      12296.912      2881.9561      877.47974      1293.8967     -17890.454     -26640.145     -43236.702      7            
      7200   299.16919     -16001.512      17891.512      1889.9996     -1361.3936     -1349.6164     -1344.543      -1390.0214      0.0014389642  -0.00063320731  0.00144       -0.00080345382 -0.00063340787  0.0014389642  -0.00080377677  22.53659       14.832833      12.175138     -10.164869      7.6484679      0.19638906     64.926662      62.903634      54.100533      2              220953.23      1.2453482      11196.331      12352.763      2911.0693      870.62624      1168.1411     -17859.79      -26640.654     -43332.302      7.2          
      7400   296.66017     -16172.088      17741.462      1569.3747      76.27754      -810.1397       1052.1946     -13.222329      0.0014789059  -0.0021107122   0.00148       -0.0013949435  -0.0021129429   0.0014789059  -0.0013959173  -5.7133859      20.35565      -16.387583     -19.036056      13.83304      -3.7782261      64.830672      62.906147      54.068507      2              220504.77      1.247881       11257.346      12320.97       2549.6933      863.49597      1346.6329     -17870.624     -26639.603     -43163.594      7.4          
      7600   296.00974     -15937.756      17702.564      1764.8086     -320.43959     -1183.2157     -183.93194      405.82884      0.001518846   -0.0014315267   0.00152       -0.0010638505  -0.0014325523   0.001518846   -0.0010644168  -21.499809     -18.729599     -15.281035      9.9679038      9.5667216     -6.8952346      64.874797      62.908659      54.086434      2              220736.82      1.2465691      11375.475      12311.379      2733.0262      884.37769      1308.0523     -17909.741     -26640.325     -43242.013      7.6          
      7800   300.12891     -16041.159      17948.907      1907.7473     -318.77093     -694.53152     -200.11305     -61.668236      0.0015587845   3.138538e-06   0.00156        0.00105493     3.1385331e-06  0.0015587845   0.0010543739  -5.5453949      32.576723     -4.0562328      14.292614     -3.2818301     -1.0769611      64.968004      62.911172      54.201153      2              221531.67      1.2420965      11251.832      12306.504      2801.0762      872.8206       1265.0662     -17898.447     -26640.012     -43273.392      7.8          
      8000   298.2304      -16191.053      17835.369      1644.3156      240.26417      602.3397      -397.70697      516.15976      0.0015987214   0.00013666966  0.0016         0.00096085895  0.00013666033  0.0015987214   0.00096039762  27.239736      15.368086      23.387272     -1.4564715      4.4516793      5.5087132      64.976679      62.913684      54.19606       2              221549.28      1.2419977      11286.72       12282.379      2540.1654      862.56565      1406.0105     -17928.401     -26640.492     -43162.883      8            
      8200   298.72436     -15978.968      17864.909      1885.9409      320.58021      547.66817      151.62021      262.45224      0.0016386567  -0.00113816     0.00164        0.00046989631 -0.0011388082   0.0016386567   0.00046978594  6.7705865      47.94127       0.33079254     6.1571299      3.3456588      3.3694382      64.893856      62.916197      54.169477      2              221167.18      1.2441435      11277.267      12393.061      2647.9679      891.96547      1347.3481     -17896.111     -26640.466     -43189.23       8.2          
      8400   296.85477     -15858.789      17753.1        1894.3118     -314.84409     -465.91395      300.46289     -779.0812       0.0016785904  -0.0026510112   0.00168        0.000727854   -0.0026545314   0.0016785904   0.00072758924  2.0072254     -10.844348     -1.0359755      0.34196346    -3.8039962      1.8104935      64.79557       62.918709      54.183444      2              220897.97      1.2456597      11422.392      12378.346      2668.8568      871.21794      1346.4365     -17904.366     -26641.672     -43199.601      8.4          
      8600   298.26822     -16155.95       17837.631      1681.6803      201.17943      634.23571      77.783374     -108.4808       0.0017185225  -0.0036818325   0.00172        0.0019772951  -0.0036886271   0.0017185225   0.0019753428   1.1910403      8.7656527     -26.020541      1.996176       15.963693      14.441622      64.728599      62.921222      54.251094      2              220953.99      1.2453439      11310.123      12273.288      2653.0177      871.97088      1264.7183     -17888.088     -26640.98      -43264.35       8.6          
      8800   295.88657     -16078.344      17695.198      1616.8535     -816.32971     -212.70908     -964.54873     -1271.7313      0.001758453   -0.0052263465   0.00176        0.0033369953  -0.0052400516   0.001758453    0.0033314399   3.4537244      7.848578       22.126108      11.521104     -4.6219692     -8.7270761      64.628256      62.923734      54.324713      2              220919.66      1.2455374      11350.769      12387.069      2530.7865      870.04117      1284.4669     -17860.451     -26641.026     -43217.01       8.8          
      9000   300.24271     -16130.972      17955.713      1824.741       309.16211      119.83942     -209.08969      1016.7366      0.0017983819  -0.0063805247   0.0018         0.0033723138  -0.0064009672   0.0017983819   0.0033666403  -13.567008     -4.2820957      2.3583388      10.327159      20.568221     -13.770632      64.553271      62.926247      54.326625      2              220679.92      1.2468905      11371.666      12318.359      2454.9627      862.677        1352.5573     -17851.181     -26640.013     -43138.637      9            
      9200   298.13302     -16219.63       17829.545      1609.9148      13.595637     -343.73207     -611.8762       996.39518      0.0018383093  -0.0060063887   0.00184        0.0031993745  -0.0060244996   0.0018383093   0.0031942674  -9.1112249      23.748791      12.225386      1.5581092     -0.15370567     2.4174973      64.577578      62.928759      54.317262      2              220733.78      1.2465863      11352.155      12243.984      2585.9221      850.87613      1275.2922     -17887.462     -26640.398     -43252.568      9.2          
      9400   298.38858     -16301.698      17844.828      1543.1302     -829.19878     -1090.6399     -655.61995     -741.33648      0.001878235   -0.0054651421   0.00188        0.0025794651  -0.0054801307   0.001878235    0.002576144   -8.9392013      0.042686859   -0.43541352     21.517813      1.5979979     -14.3162        64.612742      62.931272      54.283697      2              220726.31      1.2466285      11156.665      12293.101      2568.3947      866.91237      1323.3023     -17870         -26640.073     -43186.771      9.4          
      9600   300.61286     -16009.154      17977.849      1968.6954     -594.37663     -330.57283     -970.12458     -482.43247      0.0019181592  -0.0043003463   0.00192        0.00065226829 -0.0043096194   0.0019181592   0.00065205566  11.625492     -1.7427442      10.770262      7.7485488      6.6733164      16.979818      64.688416      62.933784      54.179351      2              220568.84      1.2475185      11226.928      12423.456      2737.0291      871.8966       1275.5928     -17903.899     -26640.157     -43268.464      9.6          
      9800   300.70006     -16100.331      17983.064      1882.7331      1045.9345      862.50498      1154.5592      1120.7392      0.0019580817  -0.004224284    0.00196       -0.0018546023  -0.0042332315   0.0019580817  -0.0018563242  -3.3423654      22.934189     -17.422553      3.2518617      4.9731316     -22.427446      64.693357      62.936297      54.043619      2              220041.86      1.2505062      11426.114      12261.108      2552.9503      867.79997      1341.2905     -17909.264     -26640.33      -43208.303      9.8          
     10000   297.1672      -16175.69       17771.785      1596.0955     -610.97093      103.87998     -1534.6592     -402.13357      0.0019980027  -0.0027438422   0.002         -0.0022203923  -0.0027476134   0.0019980027  -0.002222861   -7.799576       6.9125569     -3.5940783      19.375892      11.381406     -15.268783      64.789539      62.938809      54.023814      2              220297.03      1.2490577      11273.191      12131.925      2831.7358      861.47182      1263.5029     -17897.837     -26639.68      -43274.013      10           
     10200   298.13405     -16027.289      17829.606      1802.3167      356.10534     -740.1513       378.09583      1430.3715      0.002037922   -0.00099708894  0.00204       -0.0030990781  -0.00099758636  0.002037922   -0.0031038902   8.01209        17.583527      12.627321      19.112816      4.8642652     -3.4428269      64.903021      62.941322      53.976238      2              220497.36      1.2479229      11319.701      12369.252      2752.1006      848.3497       1230.5112     -17908.122     -26639.082     -43316.693      10.2         
     10400   299.22345     -16034.873      17894.757      1859.8835      136.60336     -262.59286      653.18824      19.214702      0.0020778398  -0.00059383467  0.00208       -0.0029092     -0.00059401106  0.0020778398  -0.00291344     19.776161      4.3195763     -19.841684      15.125239      3.6462906      7.6106555      64.92922       62.943834      53.986519      2              220637.18      1.2471321      11346.513      12240.498      2737.757       877.55526      1287.9578     -17885.889     -26639.264     -43237.196      10.4         
     10600   298.21733     -16255.963      17834.587      1578.6234      860.65221      1310.0838      54.940243      1216.9326      0.002117756   -0.0018444147   0.00212       -0.003633762   -0.0018461178   0.002117756   -0.0036403802   5.2670606      12.908987      13.83594      -6.2106658      1.8064776     -9.8438961      64.847972      62.946347      53.947288      2              220209.75      1.2495528      11124.638      12281.942      2592.526       879.32866      1368.6194     -17863.242     -26639.775     -43134.398      10.6         
     10800   296.01263     -15943.1        17702.737      1759.6372     -802.14146     -530.31431     -961.16706     -914.94301      0.0021576706  -0.004090071    0.00216       -0.003143567   -0.0040984582   0.0021576706  -0.0031485184  -15.696421      16.611843     -15.45166       21.185111     -2.8339179      0.92887153     64.702077      62.948859      53.973829      2              219831.19      1.2517045      11376.954      12278.9        2720.1114      873.6704       1364.2683     -17917.046     -26639.958     -43192.736      10.8         
     11000   299.83901     -16072.698      17931.57       1858.8723     -190.38688      95.255905      238.69055     -905.10709      0.0021975835  -0.004238683    0.0022        -0.0012289648  -0.0042476916   0.0021975835  -0.0012297206  -7.9196817      27.451948     -8.1014653     -8.9320754      3.7775016      8.2365686      64.692422      62.951372      54.077494      2              220229.33      1.2494417      11344.135      12251.823      2720.9334      886.71635      1227.8488     -17865.578     -26638.576     -43276.305      11           
     11200   297.38742     -16255.266      17784.955      1529.6891     -1061.7306     -275.18307     -1886.3332     -1023.6756      0.0022374949  -0.0029651743   0.00224        0.0014694103  -0.0029695791   0.0022374949   0.0014683318  -3.9294588      24.792882     -17.25731       5.3274602      15.897783     -8.4296509      64.775159      62.953885      54.223595      2              221115.57      1.2444339      11087.813      12396.684      2508.4686      873.60092      1361.0493     -17843.029     -26639.852     -43121.832      11.2         
     11400   299.19404     -16081.299      17892.998      1811.6993     -98.493998      94.154068      97.891992     -487.52806      0.0022774047  -0.0034602014   0.00228        0.0051355578  -0.0034662018   0.0022774047   0.0051224158   25.201188      33.156673     -8.5403163      14.544692      7.978808       3.0860946      64.742998      62.956397      54.422095      2              221823.69      1.2404613      11276.208      12330.736      2520.3901      853.10245      1441.0202     -17862.447     -26640.308     -43061.735      11.4         
     11600   296.39944     -16000.781      17725.87       1725.0882     -768.30393     -262.90902     -715.89986     -1326.1029      0.002317313   -0.0066387278   0.00232        0.0064547473  -0.0066608622   0.002317313    0.0064340046   27.375433      30.3042        34.250823      16.238008      16.9418       -6.1471245      64.536496      62.95891       54.493521      2              221415.21      1.2427498      11375.213      12398.632      2576.2482      871.3346       1298.2117     -17879.033     -26641.387     -43222.209      11.6         
     11800   296.54364     -16086.63       17734.494      1647.8637     -191.47179      71.962149     -441.89487     -204.48265      0.0023572196  -0.0094181326   0.00236        0.0060204227  -0.0094627637   0.0023572196   0.0060023724  -0.26320105     1.6886302      1.9360703      25.039426      9.1176175      6.5425729      64.355925      62.961422      54.470005      2              220709.22      1.246725       11358.357      12192.851      2703.3416      863.60689      1323.1113     -17886.992     -26640.905     -43204.786      11.8         
     12000   299.71289     -15930.996      17924.027      1993.0308      838.96839      1265.2443      644.5742       607.08668      0.0023971246  -0.00958096     0.0024         0.0057890678  -0.0096271526   0.0023971246   0.0057723755  -30.314573      4.95134        12.012184      14.034548      2.2807023      3.6580912      64.345346      62.963935      54.457478      2              220631         1.247167       11393.957      12450.328      2529.0874      875.05614      1342.6058     -17883.241     -26638.79      -43179.425      12           
     12200   298.80669     -16223.487      17869.833      1646.3462      110.27111      492.11064      428.96412     -590.26143      0.002437028   -0.0090506202   0.00244        0.0042567365  -0.0090918259   0.002437028    0.0042477022  -13.730084      15.176983      6.801595       13.380758      12.27609       2.1242234      64.379801      62.966447      54.374512      2              220421.62      1.2483517      11338.821      12208.383      2542.6546      858.71009      1367.4004     -17898.634     -26640.822     -43172.056      12.2         
     12400   298.72943     -16241.762      17865.212      1623.4499      689.50158      546.27307     -70.797902      1593.0296      0.0024769299  -0.007865703    0.00248        0.0022412342  -0.0078968008   0.0024769299   0.0022387263   4.1265774      0.50590509     0.1864929      0.21501649     14.560745      0.20034027     64.456782      62.96896       54.265384      2              220251.07      1.2493184      11242.517      12186.089      2575.1429      884.9359       1405.4835     -17895.075     -26640.856     -43130.447      12.4         
     12600   300.23348     -15917.945      17955.161      2037.2157      796.36958      1143.0096      412.1205       833.97859      0.0025168301  -0.0058265603   0.00252        0.0011484765  -0.0058436009   0.0025168301   0.0011478175  -8.2770924      2.5805038      7.4503382      9.8790789      15.707681      2.7693635      64.589261      62.971472      54.206218      2              220471.91      1.2480669      11533.711      12317.791      2629.3354      896.43128      1284.3458     -17938.669     -26640.891     -43295.214      12.6         
     12800   297.25972     -15961.632      17777.318      1815.6855     -198.20798     -349.16328     -113.99015     -131.47052      0.0025567288  -0.0043008869   0.00256        0.00016392469 -0.0043101624   0.0025567288   0.00016391125  5.6102815      36.218815      10.383591      13.274363      5.2626093     -2.8403591      64.688381      62.973985      54.15291       2              220601.9       1.2473315      11327.262      12381.6        2742.0331      871.22395      1252.1814     -17894.425     -26641.508     -43283.752      12.8         
     13000   299.46584     -16258.223      17909.253      1651.0297      216.74583      150.29935      633.50885     -133.57071      0.0025966258  -0.0044135825   0.0026        -0.00088381533 -0.0044233511   0.0025966258  -0.00088420613  17.874595      14.64497      -2.6204346      18.225854      15.196581      10.472466      64.681059      62.976497      54.096181      2              220354.66      1.2487311      11255.798      12215.072      2688.6635      847.69817      1241.3127     -17866.356     -26640.412     -43265.454      13           
     13200   294.28737     -16162.046      17599.56       1437.5136     -825.15401     -667.18611     -1030.6573     -777.61864      0.0026365213  -0.0047115123   0.00264       -0.0014846191  -0.0047226464   0.0026365213  -0.0014857222  -15.722458     -2.6524133     -14.089992      8.962146       24.659689     -9.5944962      64.661703      62.97901       54.063652      2              220165.03      1.2498066      11277.723      12275.964      2671.3223      870.43805      1244.402      -17862.324     -26639.572     -43257.494      13.2         
     13400   297.20161     -16000.239      17773.843      1773.6038     -131.268       -294.69354     -395.80941      296.69896      0.0026764152  -0.0037922099   0.00268       -0.0015882545  -0.0037994186   0.0026764152  -0.0015895171   9.6589548      19.48696       5.7706581      1.4024183      3.9330094     -2.3313631      64.721428      62.981522      54.05804       2              220354.31      1.248733       11430.714      12218.321      2704.9891      881.79495      1265.9232     -17861.899     -26640.082     -43236.058      13.4         
     13600   297.55184     -16101.195      17794.788      1693.5934     -652.54563     -749.4073      -518.93851     -689.29107      0.0027163075  -0.0034510295   0.00272       -0.0017100363  -0.003456998    0.0027163075  -0.0017115     -5.8069703      8.9505973     -5.4506849      14.51964       14.02667       12.623626      64.743594      62.984035      54.051447      2              220411.68      1.248408       11292.372      12258.93       2680.1407      871.66388      1312.2151     -17875.751     -26640.765     -43204.301      13.6         
     13800   295.07724     -16277.028      17646.797      1369.7684      314.25666      26.156809      20.514143      896.09904      0.0027561982  -0.0019696166   0.00276       -0.0016926777  -0.0019715588   0.0027561982  -0.0016941119  -17.720997      20.887597     -7.2208376     -3.7467336      16.02794       0.40816705     64.839838      62.986547      54.052386      2              220751.98      1.2464835      11236.209      12281.508      2502.8857      857.65418      1363.2737     -17878.138     -26640.421     -43155.286      13.8         
     14000   299.31995     -16079.652      17900.528      1820.8756     -511.49903     -643.39647     -530.93809     -360.16252      0.0027960873   0.00077706628  0.0028        -9.3617483e-05  0.00077676453  0.0027960873  -9.3621866e-05  5.2074161      7.0550063     -11.747773      2.8449646      17.990774     -0.62832883     65.018284      62.98906       54.138966      2              221722.92      1.2410251      11270.623      12339.131      2636.5232      876.45353      1316.2807     -17878.203     -26640.46      -43202.382      14           
     14200   298.71226     -16193.191      17864.186      1670.9948     -563.3797      -20.168984     -990.38773     -679.58238      0.0028359748   0.00055969129  0.00284        0.0017612349   0.00055953472  0.0028359748   0.0017596857   23.674756      29.896966      1.2118131      25.258684      3.6586295     -3.1387579      65.004162      62.991572      54.239395      2              222094.83      1.2389469      11377.303      12251.571      2516.7985      861.19565      1296.6616     -17856.832     -26639.888     -43200.059      14.2         
     14400   297.75002     -16179.449      17806.64       1627.1911     -717.73848     -949.02551     -134.94843     -1069.2415      0.0028758607  -0.0017577265   0.00288        0.0019741591  -0.0017592731   0.0028758607   0.001972213    16.119339      14.19823       21.62751      -5.4138592      3.3853162      7.2390197      64.853604      62.994085      54.250924      2              221636.37      1.2415097      11261.021      12267.445      2656.2939      849.87715      1296.9701     -17870.194     -26640.861     -43214.085      14.4         
     14600   300.3687      -16104.471      17963.247      1858.7767      492.01727      445.62884      460.94695      569.47604      0.0029157451  -0.0043299306   0.00292        0.00024229159 -0.0043393319   0.0029157451   0.00024226224  14.222234      19.94497      -5.8192545      10.797295      5.2011279     -3.2800921      64.686494      62.996598      54.157153      2              220691.97      1.2468224      11281.641      12365.893      2464.7787      865.96225      1449.8727     -17892.333     -26640.286     -43082.746      14.6         
     14800   297.46098     -16201.901      17789.354      1587.4529      824.66441      522.19404      453.74686      1498.0523      0.0029556278  -0.0054392248   0.00296        2.8392231e-05 -0.0054540712   0.0029556278   2.8391828e-05 -28.151501      6.4742145     -6.425163       18.98896       10.231911      12.488942      64.614425      62.99911       54.145572      2              220407.74      1.2484303      11211.231      12374.624      2547.4329      847.66493      1370.2807     -17912.469     -26640.667     -43182.855      14.8         
     15000   296.00783     -16071.043      17702.45       1631.4072     -537.80663     -245.71025     -950.25309     -417.45657      0.002995509   -0.0047463252   0.003         -0.00011776886 -0.0047576247   0.002995509   -0.00011777579 -10.708708      26.382675      13.338155      10.435134      2.6197196     -0.19255793     64.659442      63.001623      54.137658      2              220537.86      1.2476937      11230.395      12429.594      2664.8609      867.80607      1252.9135     -17876.267     -26640.345     -43263.699      15           
     15200   302.02081     -15979.508      18062.05       2082.5426      430.29946      527.96704      544.89072      218.04063      0.0030353885  -0.0041928815   0.00304       -0.00074174422 -0.0042016963   0.0030353885  -0.00074201945  0.35453907     5.58155       -6.3961462      2.3166732      0.98180605     13.040981      64.695398      63.004135      54.103874      2              220531.59      1.2477292      11334.115      12412.51       2632.8462      869.23097      1300.9537     -17888.308     -26640.855     -43228.21       15.2         
     15400   300.16244     -16083.69       17950.912      1867.2222      335.43118      592.32046     -1098.5256      1512.4987      0.0030752665  -0.0036867758   0.00308       -0.00038465602 -0.0036935887   0.0030752665  -0.00038473002  6.1011713      18.043677     -2.2634296      6.9444262      0.82683231    -12.487141      64.728278      63.006648      54.123208      2              220731.32      1.2466002      11274.283      12174.779      2708.9032      880.32439      1430.6453     -17912.219     -26640.406     -43121.98       15.4         
     15600   296.78736     -16129.803      17749.069      1619.266      -223.50864     -341.39448     -269.48344     -59.648009      0.0031151429  -0.0027221317   0.00312        0.00067447943 -0.0027258434   0.0031151429   0.00067425207 -13.737561      11.558968     -5.8266931      16.543812      10.350521      1.3431166      64.790949      63.00916       54.180554      2              221187.95      1.2440266      11235.476      12264.875      2581.8846      862.21236      1474.9742     -17908.053     -26641.172     -43074.251      15.6         
     15800   299.58545     -16152.768      17916.406      1763.6378      131.95751      253.12938      139.3922       3.3509623      0.0031550177  -0.0026068352   0.00316        0.00040495561 -0.0026102389   0.0031550177   0.00040487364  23.617978      17.611304      21.95917      -0.14691661     0.73449766     6.6739747      64.79844       63.011673      54.165961      2              221162.76      1.2441683      11292.056      12369.928      2515.7442      874.39127      1337.434      -17901.929     -26640.393     -43204.888      15.8         
     16000   301.17065     -16157.044      18011.207      1854.1631      717.13481      869.66726      272.24945      1009.4877      0.0031948909  -0.0022589885   0.0032        -0.0010905805  -0.0022615439   0.0031948909  -0.0010911756  -16.131033      18.234754     -1.7853923      12.362818      8.39238        4.500089       64.821038      63.014185      54.084986      2              220917.96      1.245547       11333.7        12278.196      2509.2939      861.52684      1445.54       -17944.46      -26640.84      -43139.76       16           
     16200   296.30115     -16070.958      17719.992      1649.0334     -505.08163     -146.15632     -741.4462      -627.64235      0.0032347625  -0.001746001    0.00324       -0.0015946907  -0.001747527    0.0032347625  -0.0015959635   7.3948083      9.2824142     -15.767027      15.420539      0.26666152     15.4011        64.854366      63.016698      54.057692      2              220928.81      1.2454858      11240.045      12272.089      2820.2291      885.51611      1259.7496     -17907.344     -26641.243     -43288.837      16.2         
     16400   298.95154     -16042.045      17878.496      1836.4502     -1288.2113     -1208.457      -1075.6154     -1580.5615      0.0032746325  -0.0013413319   0.00328       -0.0017185285  -0.0013422323   0.0032746325  -0.0017200069   8.7933078      35.696377      11.334328     -7.4410099      3.12417       -2.0775353      64.880657      63.01921       54.050987      2              220999.77      1.2450859      11329.89       12185.928      2849.3343      873.13136      1272.2363     -17911.562     -26641.003     -43280.329      16.4         
     16600   301.07694     -16008.368      18005.603      1997.2347      37.779916      1439.0162     -828.50085     -497.17562      0.003314501   -0.0017572146   0.00332       -0.00182269    -0.0017587603   0.003314501   -0.0018243531  -10.040259      23.97961      -2.6157804      6.4872616      6.1468978     -6.669439       64.853638      63.021723      54.045347      2              220893.49      1.245685       11222.146      12408.272      2677.2324      869.62356      1358.0119     -17903.109     -26640.544     -43185.642      16.6         
     16800   299.57704     -16285.089      17915.903      1630.8139     -114.83746     -643.15284     -201.97481      500.61528      0.0033543678  -0.0020078645   0.00336       -0.0016223721  -0.002009883    0.0033543678  -0.0016236896   14.111126      2.769902      -7.3561018      7.8775866      4.3589587      1.3557847      64.837353      63.024235      54.056193      2              220891.15      1.2456982      11056.668      12211.564      2665.4678      867.37368      1420.2175     -17864.912     -26641.469     -43086.163      16.8         
     17000   298.65758     -16173.074      17860.916      1687.8419     -750.36956     -1007.4687     -1303.1733      59.533418      0.0033942331  -0.0028465398   0.0034        -0.00093491872 -0.0028505989   0.0033942331  -0.00093535603 -15.776793      23.309593     -4.4597375     -4.2292251      6.7675115      8.226534       64.782866      63.026748      54.093415      2              220866.3       1.2458383      11145.423      12205.988      2696.3359      854.78604      1474.3115     -17909.726     -26640.192     -43075.606      17           
     17200   302.28626     -16141.67       18077.925      1936.2545     -806.63225     -302.82633     -1282.1757     -834.89472      0.0034340967  -0.0039828027   0.00344        0.00088658955 -0.0039907552   0.0034340967   0.00088619676  14.689496      25.611343     -3.7275357      0.0096374732   15.76012       2.8579916      64.709046      63.02926       54.192038      2              221025.66      1.2449401      11179.597      12402.983      2688.9409      857.20911      1244.3681     -17874.296     -26640.473     -43270.401      17.2         
     17400   300.09885     -16200.546      17947.109      1746.5629     -40.295582      765.45726     -724.98432     -161.35969      0.0034739588  -0.0069892934   0.00348        0.0035437164  -0.007013833    0.0034739588   0.0035374522  -4.6881169      22.173337     -1.9620571      8.1687741      2.1600952      14.74928       64.513721      63.031773      54.335906      2              220952.3       1.2453534      11093.47       12282.584      2733.8735      868.49138      1334.9473     -17873.597     -26640.315     -43178.966      17.4         
     17600   299.11955     -16228.478      17888.543      1660.0651      296.3268       523.59753     -517.21549      882.59836      0.0035138193  -0.010548837    0.00352        0.0055112213  -0.010604871    0.0035138193   0.0054960901  -17.615792      51.142842      27.030211     -3.625024      -1.9187318      2.8965942      64.282465      63.034285      54.442435      2              220600.7       1.2473383      11345.304      12180.46       2637.6685      866.57835      1266.9891     -17885.191     -26640.286     -43258.488      17.6         
     17800   297.43264     -16279.395      17787.659      1508.2646      630.71996      783.76728      766.79933      341.59326      0.0035536782  -0.012362674    0.00356        0.0056151475  -0.012439728    0.0035536782   0.0055994413  -16.795097      25.692696      9.8163423     -1.5407991      8.7091935     -4.0061075      64.164624      63.036798      54.448062      2              220227.84      1.2494501      11174.804      12234.236      2599.3309      861.41436      1405.3432     -17913.059     -26641.464     -43149.18       17.8         
     18000   298.44951     -16064.293      17848.472      1784.1794      262.8235       462.15191     -52.784759      379.10336      0.0035935355  -0.011059475    0.0036         0.0046494218  -0.011121085    0.0035935355   0.0046386466  -28.510897      7.4276294      13.665918     -0.0097592179   10.413878     -20.912189      64.24929       63.03931       54.395773      2              220315.44      1.2489533      11197.127      12463.589      2653.9172      880.03024      1284.358      -17902.063     -26641.251     -43258.956      18           
     18200   297.16936     -16074.48       17771.914      1697.4342     -878.84957     -345.79535     -1886.1055     -404.64785      0.0036333912  -0.0082745181   0.00364        0.0021764057  -0.0083089419   0.0036333912   0.0021740408  -0.94283637     20.172432      13.328978      5.4279856     -0.59406578    -19.343263      64.430223      63.041823      54.261874      2              220400.81      1.2484696      11278.659      12249.991      2799.2612      858.24481      1271.7224     -17891.975     -26640.383     -43260.636      18.2         
     18400   295.9524      -16271.772      17699.135      1427.3628     -82.013224     -268.90129     -498.39058      521.2522       0.0036732454  -0.0057963392   0.00368       -0.00088546539 -0.0058132031   0.0036732454  -0.00088585764 -11.132208     -0.11991553    -8.2272075      4.5848984      7.7506912     -0.98607409     64.591225      63.044336      54.096092      2              220285.28      1.2491243      11247.611      12094.72       2704.608       876.01265      1316.2908     -17870.422     -26640.593     -43194.724      18.4         
     18600   298.53469     -15983.755      17853.566      1869.8117      575.31127      955.35398     -158.41459      928.9944       0.0037130979  -0.0040612161   0.00372       -0.0013413981  -0.0040694852   0.0037130979  -0.0013422986   16.304755      20.752603     -8.0052867      16.743968      3.3075278     -3.8677449      64.703952      63.046848      54.071406      2              220577.82      1.2474677      11316.928      12460.799      2523.2848      873.47352      1369.5843     -17885.957     -26641.867     -43158.24       18.6         
     18800   297.76377     -16228.59       17807.462      1578.872       132.33267      674.3771       221.8345      -499.21359      0.0037529489  -0.003326401    0.00376       -0.0010860626  -0.0033319458   0.0037529489  -0.0010866528   0.46878715     21.953847     -11.723526     -6.1601462      12.983486      8.5490834      64.751691      63.049361      54.085231      2              220805.81      1.2461797      11246.049      12246.69       2678.5585      871.5624       1267.6974     -17898.287     -26640.86      -43271.449      18.8         
     19000   296.73574     -16084.971      17745.982      1661.0107      778.86178      694.25039      1419.1555      223.1794       0.0037927982  -0.0023482896   0.0038        -0.00098538499 -0.0023510512   0.0037927982  -0.0009858708  -11.690585      22.455788     -5.505338       2.800602       1.531888      -7.7920099      64.815237      63.051873      54.090682      2              221053.58      1.2447828      11392.047      12228.847      2567.4762      865.49859      1410.8833     -17909         -26640.723     -43138.839      19           
     19200   299.51033     -16084.044      17911.913      1827.8692      0.18082212     779.2398      -281.11759     -497.57975      0.003832646   -0.00098038021  0.00384       -0.00046038831 -0.00098086109  0.003832646   -0.00046049432 -1.7056837      17.391819      12.094517      9.8993638      2.198556       2.3339693      64.904107      63.054386      54.119108      2              221481.83      1.242376       11295.373      12412.22       2549.322       873.7137       1272.0915     -17846.885     -26639.879     -43214.673      19.2         
     19400   296.7194      -16107.876      17745.004      1637.1286     -803.48245     -552.02914     -1238.989      -619.42919      0.0038724922  -0.00064820178  0.00388       -0.00098411636 -0.00064841195  0.0038724922  -0.00098460092  18.34575       6.054711       17.321169      20.70977       18.363278     -6.4503344      64.925688      63.056898      54.090751      2              221448.21      1.2425646      11252.695      12375.348      2642.1889      866.65841      1279.4391     -17883.482     -26640.723     -43244.766      19.4         
     19600   299.90969     -16442.829      17935.797      1492.9676     -78.929385     -205.33227      51.222297     -82.678178      0.0039123368  -0.0026614676   0.00392       -0.0039626411  -0.0026650157   0.0039123368  -0.0039705131   18.163901      20.460831      17.585477      1.1118423      2.0287888      5.4375338      64.79489       63.059411      53.929481      2              220351.96      1.2487464      11246.287      12306.684      2420.229       854.69349      1270.2783     -17901.457     -26639.544     -43270.723      19.6         
     19800   299.07227     -16091.68       17885.716      1794.0354     -284.24122     -844.50915     -604.81741      596.6029       0.0039521798  -0.0038389834   0.00396       -0.0057094052  -0.0038463712   0.0039521798  -0.0057257662  -17.303596      7.32816       -16.346905      1.4166965      2.5204985      3.1514726      64.71839       63.061923      53.834905      2              219714.57      1.2523689      11277.907      12278.952      2603.9996      895.26001      1396.8453     -17904.289     -26640.355     -43147.798      19.8         
     20000   297.80619     -16123.576      17809.999      1686.4233     -499.22501     -381.63864     -794.75427     -321.28211      0.0039920213  -0.0027784731   0.004         -0.0055672616  -0.0027823402   0.0039920213  -0.0055828165  -28.675886      14.515831     -20.829867      19.925821     -1.354078       1.9014229      64.787289      63.064436      53.842601      2              219988.69      1.2508084      11307.775      12253.906      2696.6885      869.3506       1307.5831     -17918.952     -26639.927     -43251.296      20           
     20200   296.14501     -16300.667      17710.654      1409.9863     -688.51211     -1142.8104     -222.7073      -700.0186       0.0040318611  -0.0010185343   0.00404       -0.0047672203  -0.0010190534   0.0040318611  -0.0047786197   12.242467      4.1089637      2.2794844      13.860077      11.097417     -6.5133022      64.901628      63.066948      53.885918      2              220563.02      1.2475514      11321.157      12284.441      2483.6183      841.45475      1282.5078     -17873.504     -26640.342     -43231.338      20.2         
     20400   296.45752     -16044.049      17729.343      1685.2936     -498.04834     -391.1714      -514.29406     -588.67958      0.0040716994  -0.00031332633  0.00408       -0.0037086492  -0.00031337542  0.0040716994  -0.0037155433  -3.3285257      16.443386     -10.727109      3.059877       3.0283882     -4.4021311      64.947444      63.069461      53.943234      2              220962.29      1.2452971      11283.233      12337.923      2615.1158      869.17162      1344.9622     -17853.513     -26640.942     -43149.493      20.4         
     20600   299.95618     -16166.111      17938.577      1772.4662      577.44532      506.56352      1222.6363      3.1361198      0.004111536   -0.00021286849  0.00412       -0.002564096   -0.00021289115  0.004111536   -0.002567389    8.3170766      44.872454      6.4843633      3.0673587      12.979012      0.35505344     64.95397       63.071973      54.005204      2              221247.18      1.2436936      11294.095      12255.394      2525.8171      861.04955      1410.3956     -17871.64      -26641.222     -43102.467      20.6         
     20800   295.42241     -16217.664      17667.439      1449.7753     -212.52781      531.17424     -552.05398     -616.70369      0.0041513711  -0.0020327651   0.00416       -0.0030775665  -0.002034834    0.0041513711  -0.0030823119   12.836342     -9.1345784     -6.5412774      17.29031       7.7162423     -10.867008      64.835736      63.074486      53.977403      2              220739.55      1.2465537      11349.101      12215.404      2603.6032      869.06273      1282.9244     -17896.804     -26640.956     -43254.835      20.8         
     21000   297.03796     -16062.722      17764.056      1701.3337      538.80351      241.16278      653.40788      721.83987      0.0041912046  -0.003834887    0.0042        -0.0030842489  -0.0038422591   0.0041912046  -0.003089015    8.3450624      5.5392993      13.669906     -1.0002065      4.6164586     -4.2570372      64.718656      63.076998      53.977041      2              220348.24      1.2487674      11412.379      12207.955      2706.4834      869.87728      1283.4258     -17902.512     -26640.33      -43259.416      21           
     21200   297.90362     -16138.024      17815.826      1677.8022     -266.75576      410.95949     -1541.0986      329.87185      0.0042310365  -0.0044973178   0.00424       -0.0019799506  -0.0045074611   0.0042310365  -0.0019819133  -11.607946     -7.4422934     -7.1606556     -0.011745987    13.674388      10.665865      64.675619      63.079511      54.036832      2              220454.41      1.248166       11331.19       12257.635      2661.6724      889.56989      1295.8155     -17932.604     -26641.303     -43278.091      21.2         
     21400   297.56719     -16124.223      17795.706      1671.4828     -15.936182      440.59374     -346.54768     -141.8546       0.0042708669  -0.005164962    0.00428       -0.00099575785 -0.0051783465   0.0042708669  -0.00099625395 -3.4631262      40.364544      0.37759067     10.63011       18.441467     -4.6398163      64.632244      63.082023      54.09012       2              220532.6       1.2477235      11302.712      12189.65       2769.483       888.49461      1297.5709     -17930.483     -26641.651     -43274.563      21.4         
     21600   298.66475     -15950.094      17861.344      1911.2504      563.31626      1357.4999      834.27941     -501.83052      0.0043106956  -0.0045658914   0.00432       -0.00040807272 -0.0045763469   0.0043106956  -0.000408156   -21.68986       15.319906     -10.024999      4.5962625      10.200124      7.3893802      64.671164      63.084536      54.12194       2              220804.01      1.2461898      11381.21       12197.557      2721.5468      885.60902      1444.5228     -17939.762     -26640.778     -43136.017      21.6         
     21800   295.31309     -16083.907      17660.901      1576.9939      36.91853      -162.08799      1058.1283     -785.28473      0.0043505227  -0.002085542    0.00436        0.00091426894 -0.0020877198   0.0043505227   0.00091385125  2.6240541      30.879578      16.440621      8.4654057      16.227175      8.223267       64.832307      63.087048      54.193537      2              221655.84      1.2414006      11251.839      12399.076      2616.0556      886.61905      1305.5174     -17901.683     -26641.332     -43237.497      21.8         
     22000   296.07876     -16045.606      17706.692      1661.0853     -794.38968     -1080.1692     -693.70182     -609.29804      0.0043903483  -0.0019634661   0.0044        -0.00071404693 -0.0019653962   0.0043903483  -0.00071430198  37.370198      29.414227      31.406245     -2.2664672      5.8573776      4.3499152      64.840238      63.089561      54.105373      2              221331.13      1.2432219      11147.78       12220.161      2864.7919      900.33846      1377.7454     -17914.655     -26641.768     -43178.677      22           
     22200   299.28196     -16119.592      17898.256      1778.664      -1216.603      -1060.3067     -1449.0963     -1140.4062      0.0044301723  -0.0030859641   0.00444       -0.0037525428  -0.0030907355   0.0044301723  -0.0037596012  -9.8818909      21.18737       7.2465774      7.4041972      3.7396047      2.9538663      64.767312      63.092074      53.940857      2              220418.74      1.248368       11146.882      12244.56       2814.9838      863.86796      1371.7655     -17920.691     -26640.96      -43189.886      22.2         
     22400   297.15333     -16071.033      17770.955      1699.9224      966.33857      1037.287       663.38119      1198.3476      0.0044699947  -0.0039575939   0.00448       -0.0041314513  -0.0039654459   0.0044699947  -0.0041400093   8.5703091     -20.40039      -51.734716      3.1379432      17.460652     -12.271005      64.710684      63.094586      53.920341      2              220151.03      1.2498861      11233.239      12405.202      2537.0443      887.98202      1432.6721     -17926.924     -26640.248     -43134.5        22.4         
     22600   296.84323     -16223.518      17752.41       1528.8924      224.66565      462.18795      818.11083     -606.30183      0.0045098155  -0.0034203755   0.00452       -0.00097404412 -0.0034262383   0.0045098155  -0.00097451881 -22.788461     -4.1081288     -27.858881     -1.3935166      14.706528      3.5454496      64.745586      63.097099      54.091296      2              220976.93      1.2452146      11223.309      12244.617      2562.5852      884.78828      1389.2093     -17888.853     -26639.174     -43138.818      22.6         
     22800   299.83441     -16129.595      17931.295      1801.6993     -893.5402      -1593.2924     -528.27134     -559.05686      0.0045496347  -0.0037550693   0.00456        0.00066313133 -0.0037621373   0.0045496347   0.00066291155  2.895582       64.308108      20.817506     -4.7906248      24.468381     -7.7744999      64.723841      63.099611      54.179939      2              221273.54      1.2435455      11299.414      12147.832      2709.3515      888.69581      1348.6872     -17884.059     -26639.516     -43174.888      22.8         
     23000   299.1882      -16147.697      17892.649      1744.9516     -486.93145     -762.0456       228.19153     -926.94027      0.0045894523  -0.0047528912   0.0046         0.00099409382 -0.0047642221   0.0045894523   0.00099360003  7.5888573      39.24278      -1.0243871     -2.4369543      7.5547963     -3.7655358      64.659015      63.102124      54.197859      2              221133.83      1.2443311      11160.183      12212.377      2789.1598      879.14496      1320.9303     -17869.746     -26639.746     -43188.562      23           
     23200   295.64646     -16169.556      17680.839      1511.2829     -116.03884      214.77429      346.35785     -909.24866      0.0046292684  -0.0056190008   0.00464        0.0018529574  -0.0056348468   0.0046292684   0.0018512428   20.944533      26.439544      4.2545499     -12.820118     -3.6431143     -11.816721      64.602746      63.104636      54.244361      2              221139.77      1.2442977      11101.611      12314.973      2637.3144      865.48806      1427.0075     -17875.672     -26640.277     -43088.942      23.2         
     23400   299.14165     -16169.25       17889.865      1720.6145      88.287838      276.67489     -521.47886      509.66749      0.0046690828  -0.0064128772   0.00468        0.0019131418  -0.006433528    0.0046690828   0.001911314   -6.674678       0.48406757     4.9829454     -4.8300281      10.024077     -1.1669099      64.551169      63.107149      54.24762       2              220985.29      1.2451675      11228.945      12287.773      2667.6983      862.34944      1368.9553     -17943.616     -26641.355     -43216.016      23.4         
     23600   298.35822     -16107.564      17843.012      1735.4487     -600.81474      61.381528     -1575.9596     -287.86614      0.0047088957  -0.0071546278   0.00472        0.0013344519  -0.0071803449   0.0047088957   0.0013335623   10.523363      33.091536      2.1747411      4.2778421      7.3934927     -11.461361      64.502979      63.109661      54.216287      2              220701.56      1.2467683      11236.636      12224.666      2808.7317      875.74322      1312.1025     -17925.781     -26639.661     -43253.34       23.6         
     23800   296.67726     -16292.643      17742.485      1449.8417      14.297288      332.34034     -181.83424     -107.61424      0.004748707   -0.0071670701   0.00476        0.00021983298 -0.007192877    0.004748707    0.00021980882 -19.61907       10.396932      7.3603134      9.7354143      5.4239907     -10.532535      64.502171      63.112174      54.155937      2              220461.9       1.2481236      11229.079      12339.229      2569.9968      848.07653      1297.7329     -17936.323     -26640.435     -43279.025      23.8         
     24000   297.58318     -16031.718      17796.662      1764.9441      170.94075     -312.82317      746.17604      79.469393      0.0047885167  -0.0070882464   0.0048        -0.00082710656 -0.0071134873   0.0047885167  -0.0008274488  -0.9978068      10.970864     -6.9498845      7.3651081      9.9866274     -3.4692049      64.507292      63.114686      54.099252      2              220257.4       1.2492825      11273.13       12197.92       2770.919       894.72235      1389.1967     -17916.395     -26641.21      -43168.409      24           
     24200   298.58257     -16123.46       17856.43       1732.9696      389.01939      754.37975     -549.60063      962.27904      0.0048283249  -0.0064374453   0.00484        8.0232409e-05 -0.006458255    0.0048283249   8.0229191e-05 -17.984939      20.798903     -17.130909      6.1401937      12.198803      2.4008739      64.549573      63.117199      54.148379      2              220610.69      1.2472818      11341.203      12263.042      2690.3298      851.86909      1285.5986     -17915.35      -26640.153     -43269.904      24.2         
     24400   295.27378     -16324.687      17658.551      1333.8634      944.35679      1254.3095      572.41665      1006.3443      0.0048681314  -0.0046478789   0.00488        0.00018253678 -0.0046587139   0.0048681314   0.00018252013 -4.5798211      25.399796      8.6271325     -5.6775033      2.2168954      6.5558426      64.665837      63.119711      54.153918      2              221039.45      1.2448624      11155.662      12269.29       2482.7169      863.75997      1444.5534     -17900.873     -26639.797     -43096.117      24.4         
     24600   295.31961     -16043.319      17661.292      1617.9725      251.44127      262.1483       253.75625      238.41925      0.0049079364  -0.0023123089   0.00492       -0.00071099361 -0.0023149864   0.0049079364  -0.00071124649 -1.1018359      55.072708      11.697463      14.869177      7.4017067      12.502976      64.817574      63.122224      54.105539      2              221368.99      1.2430092      11264.137      12315.683      2553.2029      880.94469      1489.7942     -17905.899     -26641.182     -43057.286      24.6         
     24800   298.71155     -16091.28       17864.143      1772.8632      183.56534      365.45228      274.45114     -89.207406      0.0049477397  -0.0013665592   0.00496       -0.0019105381  -0.0013674937   0.0049477397  -0.0019123655   23.47798       19.267781     -2.9825844      21.6197       -3.2671905      16.101272      64.879018      63.124736      54.040591      2              221321.67      1.243275       11232.765      12246.498      2593.117       878.74167      1458.8778     -17860.367     -26640.913     -43042.402      24.8         
     25000   297.36325     -16060.803      17783.509      1722.7065     -876.46839     -1072.7077     -475.25669     -1081.4408      0.0049875415  -0.0019307112   0.005         -0.0027791653  -0.0019325775   0.0049875415  -0.0027830344   13.655597      15.751937      7.487187       14.080084     -1.3890497      2.5689497      64.842366      63.127249      53.99356       2              221012.93      1.2450118      11266.889      12164.314      2769.1518      888.13683      1346.2436     -17855.965     -26639.573     -43149.295      25           
     25200   295.33797     -16150.328      17662.39       1512.0623     -248.3076      -981.31407      1341.6276     -1105.2363      0.0050273417  -0.0039406592   0.00504       -0.0035695173  -0.0039484441   0.0050273417  -0.0035759032   1.8765358      39.009165     -9.210512       7.8679987      3.4328171     -0.92265964     64.711784      63.129761      53.950767      2              220401.8       1.2484639      11228.629      12258.025      2679.7385      886.79305      1347.0826     -17910.157     -26640.438     -43203.512      25.2         
     25400   301.19167     -16139.044      18012.464      1873.4198      313.91756     -155.10157      1198.0058     -101.15154      0.0050671403  -0.0060458948   0.00508       -0.0046598358  -0.0060642452   0.0050671403  -0.0046707266  -7.9181198      4.7434528     -8.5170936     -16.454415     -10.678078      3.4395873      64.575011      63.132274      53.891733      2              219704.05      1.2524289      11212.659      12322.244      2622.1348      886.67204      1364.5262     -17907.139     -26640.141     -43182.754      25.4         
     25600   297.55071     -16102.788      17794.72       1691.9326     -229.4353      -324.73116     -979.93721      616.36248      0.0051069374  -0.006125696    0.00512       -0.0030337466  -0.006144535    0.0051069374  -0.0030383578  -24.924656     -34.528018     -25.469962     -3.3734589      5.8371023     -5.4723227      64.569827      63.134787      53.979776      2              220054.07      1.2504368      11313.209      12263.232      2767.894       875.44112      1233.1259     -17914.766     -26640.924     -43322.565      25.6         
     25800   297.49115     -16154.974      17791.158      1636.1846     -120.08117      784.91543     -881.76037     -263.39856      0.0051467328  -0.004148161    0.00516       -0.00088302472 -0.0041567885   0.0051467328  -0.00088341481 -3.8095424      33.386758      13.468096      11.969226     -3.8418071     -1.1355014      64.698303      63.137299      54.096224      2              220976.37      1.2452178      11351.797      12237.24       2610.0529      881.58541      1308.1989     -17904.02      -26639.828     -43235.649      25.8         
     26000   299.89443     -16033.154      17934.884      1901.7306      672.71621      1605.6705     -316.95463      729.43271      0.0051865267  -0.0032485955   0.0052        -0.00077762508 -0.0032538837   0.0051865267  -0.00077792758  33.714617      36.119356      18.919616     -4.09291        8.060934      -10.958865      64.756746      63.139812      54.101931      2              221208.12      1.2439132      11347.73       12416.062      2553.9269      887.56444      1314.3881     -17912.958     -26639.867     -43238.437      26           
     26200   301.84417     -15982.794      18051.487      2068.6921     -234.35844      738.70329     -1413.123      -28.655614      0.005226319   -0.0041593446   0.00524       -0.00027758375 -0.0041680188   0.005226319   -0.00027762228 -18.495974      30.602242     -28.258132      10.520212      17.114445     -4.2682284      64.697576      63.142324      54.129005      2              221125.4       1.2443786      11210.965      12339.421      2814.1426      894.83273      1318.82       -17921.385     -26639.59      -43242.155      26.2         
     26400   296.81694     -16108.938      17750.838      1641.8997     -840.76015     -1486.6666     -511.77015     -523.84375      0.0052661097  -0.0041322705   0.00528        0.00052322268 -0.0041408319   0.0052661097   0.00052308585  11.218734      28.946878      18.087086      12.72989       12.059287      7.6946583      64.699335      63.144837      54.172364      2              221317.35      1.2432993      11219.765      12266.128      2701.3827      896.94668      1369.641      -17922.585     -26640.216     -43193.16       26.4         
     26600   297.7836      -16058.083      17808.648      1750.5644      465.15577      792.58132      234.94839      367.9376       0.0053058988  -0.0048866416   0.00532       -0.00045623979 -0.0048986202   0.0053058988  -0.0004563439   0.72097042     22.320262      12.453486      8.3479948      3.5398464      1.9844077      64.650326      63.147349      54.119332      2              220941.99      1.2454115      11278.475      12350.162      2644.4435      890.81039      1301.4521     -17882.327     -26641.1       -43221.975      26.6         
     26800   300.33875     -16074.521      17961.456      1886.9349     -37.522985     -180.33146     -146.28491      214.04742      0.0053456863  -0.005099535    0.00536       -0.00041221459 -0.005112582    0.0053456863  -0.00041229957 -7.0867671      14.766813     -24.055158      0.88055715     19.57653      -6.8358297      64.636494      63.149862      54.121716      2              220913.24      1.2455736      11361.991      12369.254      2600.7099      877.42228      1268.0989     -17912.05      -26639.947     -43283.898      26.8         
     27000   296.92693     -16248.807      17757.415      1508.6088     -429.96246     -340.85853      130.00213     -1079.031       0.0053854723  -0.0055708199   0.0054         0.00044374204 -0.0055863948   0.0053854723   0.00044364361  9.7978436      22.824879     -5.0476097      1.5498576      8.8532765     -8.3922541      64.605876      63.152374      54.168061      2              221006.47      1.2450482      11130.213      12171.666      2735.0731      870.44306      1386.3792     -17901.174     -26641.407     -43156.202      27           
     27200   300.49761     -16178.712      17970.957      1792.2443     -515.48493     -205.37432     -592.65068     -748.42978      0.0054252566  -0.0058897025   0.00544        0.0020928055  -0.0059071152   0.0054252566   0.0020906186  -0.073354245    39.406043      6.1259999      7.218103       14.375071      2.2960123      64.585159      63.154887      54.257348      2              221308.58      1.2433486      11307.925      12189.573      2643.8271      898.52092      1317.6951     -17896.02      -26640.233     -43218.558      27.2         
     27400   298.18401     -15992.381      17832.594      1840.2136      1077.2781      514.44475      1219.9208      1497.4689      0.0054650394  -0.0073211778   0.00548        0.0017601402  -0.0073481092   0.0054650394   0.001758593    4.9991693      26.032968      10.60001       6.2168554      13.544482     -11.071522      64.492159      63.157399      54.239336      2              220925.33      1.2455054      11307.346      12324.802      2599.9239      892.10466      1418.3107     -17892.953     -26641.915     -43116.557      27.4         
     27600   296.91367     -16129.851      17756.623      1626.7721      114.95124     -81.578936      505.26699     -78.834326      0.0055048206  -0.0089157149   0.00552        0.0012893606  -0.0089556977   0.0055048206   0.0012885301   0.3514924      4.3676305     -5.2445644      7.7924548      6.8636404     -1.1966989      64.388566      63.159912      54.213846      2              220475.57      1.2480462      11232.36       12313.648      2660.0795      888.33899      1307.4888     -17890.673     -26641.094     -43224.278      27.6         
[...]
    744000   297.75482     -15522.375      17806.927      2284.5518     -784.38655      664.52572     -3168.0534      150.368        0.13871792    -0.065669742    0.1488        -0.04650961    -0.067925308    0.13871792    -0.047625933   -13.338493      208.74245     -14.334584      8.0404698     -11.018896      6.9990101      60.701381      72.159785      51.625817      2              226131.33      1.2168314      11309.13       12413.163      2776.6375      912.31681      1609.7858     -17901.486     -26641.922     -42933.622      744          
    744200   296.25106     -15567.636      17716.996      2149.3602     -1040.4263     -84.52479      -1723.8618     -1312.8922      0.13875274    -0.064400124    0.14884       -0.045078888   -0.066567377    0.13875274    -0.046126547   -11.464009      193.76433      7.9300026     -15.511318      4.9245011      7.5118322      60.783866      72.162297      51.703282      2              226786.28      1.2133172      11329.285      12437.519      2701.5849      880.9318       1585.9966     -17862.955     -26639.998     -42916.956      744.2        
    744400   292.57116     -15698.07       17496.923      1798.8534     -1022.8194     -487.6998      -2585.2462      4.4879504      0.13878755    -0.063102789    0.14888       -0.045268389   -0.065181703    0.13878755    -0.046325014    4.8228245      201.26029      4.9644833     -8.0624131      12.375415      10.061686      60.868151      72.16481       51.693022      2              227063.59      1.2118354      11188.976      12311.026      2807.6161      887.95192      1629.5816     -17882.594     -26640.627     -42893.64       744.4        
    744600   297.94641     -15583.744      17818.385      2234.6407     -750.73208     -727.84025     -932.06544     -592.29056      0.13882237    -0.062611604    0.14892       -0.045536705   -0.064657572    0.13882237    -0.046606092    5.1034755      198.18387      8.8076134      4.1985472      1.6383236      9.5078254      60.900062      72.167322      51.678494      2              227126.69      1.2114988      11403.75       12314.651      2684.1062      877.55659      1687.5948     -17908.997     -26642.406     -42863.808      744.6        
    744800   297.57968     -15467.751      17796.453      2328.7021     -98.184739      362.93265     -751.87854      94.391674      0.13885719    -0.062955084    0.14896       -0.044910611   -0.065024062    0.13885719    -0.045950342    10.012639      193.32268     -20.123304      1.5558072     -0.88588182     10.731094      60.877747      72.169835      51.712393      2              227200.31      1.2111062      11251.445      12440.636      2721.2923      891.24905      1733.728      -17864.067     -26642.034     -42772.373      744.8        
    745000   297.77251     -15741.945      17807.985      2066.0404     -1640.996      -948.98712     -2379.1364     -1594.8644      0.138892      -0.062712996    0.149         -0.043300884   -0.064765742    0.138892      -0.044266341    1.0784243      169.11554      4.3905131     -4.7262908     -0.7120728      4.5933966      60.893475      72.172347      51.79955       2              227649.96      1.2087141      11252.432      12332.697      2744.5189      871.99294      1549.9579     -17851.307     -26642.236     -42943.585      745          
    745200   297.43133     -15477.295      17787.581      2310.2858     -1189.6335     -730.31259     -3355.457       516.86899      0.13892681    -0.063949722    0.14904       -0.04392464    -0.066086088    0.13892681    -0.04491854     3.7626971      187.62595      30.077966      5.3248574      8.2363326      7.6102338      60.813127      72.17486       51.765778      2              227209.26      1.2110585      11351.69       12365.907      2801.6563      864.6668       1661.7078     -17881.63      -26641.292     -42861.215      745.2        
    745400   297.9848      -15491.926      17820.681      2328.7545      25.069847      1020.756      -1367.1402      421.59377      0.13896162    -0.064984833    0.14908       -0.045659941   -0.067192529    0.13896162    -0.046735215   -5.9515472      171.39613     -1.9352688     -8.4942611     -11.120972      6.9874703      60.745878      72.177372      51.671821      2              226553.96      1.2145615      11376.071      12301.47       2758.2371      896.70386      1678.2452     -17861.124     -26641.529     -42824.408      745.4        
    745600   296.9693      -15706.446      17759.95       2053.5044     -476.5981       572.12641     -1361.9509     -639.96982      0.13899643    -0.065137858    0.14912       -0.04737416    -0.067356202    0.13899643    -0.048533065   -19.320944      155.51389     -23.393164     -14.870871      14.395369      19.213348      60.735937      72.179885      51.579007      2              226117.87      1.2169038      11181.27       12306.438      2795.3922      880.82886      1647.4823     -17876.251     -26641.606     -42870.375      745.6        
    745800   298.41265     -15394.282      17846.268      2451.9857     -1101.5075      58.250242     -2239.7893     -1122.9834      0.13903124    -0.063798651    0.14916       -0.04820968    -0.065924709    0.13903124    -0.049410521   -5.9919472      152.5867       7.1919256     -8.2001498     -14.513792      8.5928312      60.822942      72.182397      51.533768      2              226251.06      1.2161875      11278.2        12318.554      2991.1138      892.62313      1654.1429     -17888.916     -26640         -42874.773      745.8        
    746000   299.37057     -15734.635      17903.555      2168.9202     -1114.4713     -626.03652     -2596.1491     -121.22834      0.13906605    -0.060585401    0.1492        -0.048809531   -0.062498365    0.13906605    -0.050040954    2.5503851      177.38114     -8.6701036      11.408294     -10.366584      17.765678      61.0317        72.18491       51.50129       2              226892.42      1.2127496      11177.345      12357.533      2795.5024      862.73246      1592.575      -17878.373     -26641.95      -42927.748      746          
    746200   296.07715     -15599.546      17706.596      2107.0497     -692.40133     -293.63306     -2221.805       438.23413      0.13910085    -0.058784315    0.14924       -0.049027571   -0.060582957    0.13910085    -0.050270208    3.5605857      209.55947     -4.9393357     -7.4560551     -20.291063      16.159904      61.148712      72.187422      51.489484      2              227283.23      1.2106643      11253.355      12402.565      2750.5284      879.93163      1669.5835     -17913.995     -26641.515     -42885.926      746.2        
    746400   299.65205     -15506.71       17920.389      2413.6791     -263.88982      859.33713     -1658.9053      7.8987552      0.13913566    -0.058817958    0.14928       -0.048584511   -0.060618702    0.13913566    -0.049804415    22.817426      195.67725     -7.4307131     -5.8616525     -1.416431       4.8177009      61.146527      72.189935      51.513473      2              227388.91      1.2101017      11300.935      12375.2        2754.7703      881.40977      1724.8183     -17903.564     -26640.278     -42819.024      746.4        
    746600   296.04125     -15482.143      17704.448      2222.3049     -1155.8306     -200.80571     -2644.8713     -621.81468      0.13917046    -0.05979181     0.14932       -0.047502194   -0.061653949    0.13917046    -0.048667476    7.9269681      197.01846      2.3682679      7.0011654      3.3975082      2.5689146      61.083258      72.192448      51.572074      2              227419.95      1.2099365      11282.599      12426.973      2698.099       891.69174      1792.3055     -17931.626     -26642.185     -42781.505      746.6        
    746800   298.99231     -15727.105      17880.934      2153.8285     -991.4151      -49.438731     -1426.3296     -1498.4769      0.13920527    -0.06225901     0.14936       -0.046783716   -0.064281498    0.13920527    -0.04791345    -9.1038192      196.11302     -13.278235      2.3756379      0.93564166     6.2846424      60.922969      72.19496       51.610976      2              227002.17      1.2121633      11151.606      12343.635      2763.3002      881.61712      1686.8349     -17912.204     -26641.895     -42867.265      746.8        
    747000   299.27434     -15424.162      17897.8        2473.6381     -572.97516      647.54558     -2121.7342     -244.73689      0.13924007    -0.064347145    0.1494        -0.044997398   -0.066510753    0.13924007    -0.046041214    5.2812508      196.95804      7.2432333     -5.5560007     -14.089192      13.753611      60.787307      72.197473      51.707694      2              226929.04      1.212554       11322.037      12562.876      2751.1955      877.17228      1612.6745     -17908.719     -26641.398     -42937.443      747          
    747200   297.02001     -15623.868      17762.982      2139.1138     -336.85228     -36.334503     -1287.3264      313.10409      0.13927487    -0.066379071    0.14944       -0.044436506   -0.068684781    0.13927487    -0.045454066    2.0444271      223.26369      2.7869945      8.4217528      3.0518755      17.305059      60.655298      72.199985      51.738063      2              226577.1       1.2144374      11224.153      12365.583      2767.315       873.67756      1723.0041     -17935.478     -26642.122     -42854.596      747.2        
    747400   299.28594     -15679.666      17898.494      2218.8281     -742.47373     -1572.0042     -432.62896     -222.78799      0.13930967    -0.066676938    0.14948       -0.044209921   -0.069003877    0.13930967    -0.045216973   -20.423592      160.91207     -6.7084152     -3.5693391      2.1229584      19.168501      60.635946      72.202498      51.750331      2              226566.4       1.2144947      11360.99       12237.083      2782.0092      867.55137      1643.6779     -17928.531     -26642.446     -42927.299      747.4        
    747600   300.02219     -15328.615      17942.525      2613.9097     -1594.3687     -570.61854     -2922.267      -1290.2205      0.13934446    -0.066505427    0.14952       -0.043380351   -0.06882013     0.13934446    -0.044349408    9.9801088      200.23575      15.47178       13.149052      2.202841      -10.017452      60.647089      72.20501       51.795248      2              226812.61      1.2131764      11400.761      12410.287      2938.2095      880.01298      1579.3378     -17897.187     -26640.037     -42957.886      747.6        
    747800   298.77512     -15530.987      17867.945      2336.9576      187.48601      1013.2013     -1384.3722      933.62892      0.13937926    -0.065405223    0.14956       -0.044348202   -0.067642237    0.13937926    -0.04536166    -24.197897      212.94149      9.4403278      2.1642065      8.5285155      8.9238182      60.718566      72.207523      51.742844      2              226858.08      1.2129332      11325.339      12313.36       2812.8813      868.7596       1710.7096     -17921.004     -26641.033     -42851.328      747.8        
    748000   297.98706     -15606.103      17820.816      2214.7132     -505.86628     -107.60335     -1658.3588      248.36334      0.13941406    -0.063866211    0.1496        -0.044774582   -0.065996875    0.13941406    -0.045807926   -1.9919664      184.35065     -15.966439     -30.249986      8.917314       16.031882      60.818553      72.210035      51.719758      2              227138.17      1.2114375      11319.724      12382.832      2718.1136      845.54919      1619.0591     -17850.978     -26640.402     -42872.322      748          
    748200   301.49456     -15474.16       18030.578      2556.4179     -1640.9497     -967.32953     -2306.1344     -1649.3852      0.13944885    -0.063110066    0.14964       -0.045726909   -0.06518947     0.13944885    -0.046805389    13.079652      151.51077     -3.3410586      8.0751461     -0.084998975    14.084517      60.867678      72.212548      51.668195      2              227102.91      1.2116256      11164.445      12397.876      2962.4531      900.1475       1602.3489     -17860.432     -26640.999     -42899.082      748.2        
    748400   297.01647     -15507.478      17762.771      2255.2929     -842.07114     -299.55576     -1696.4589     -530.19877      0.13948364    -0.063009299    0.14968       -0.045974969   -0.065081921    0.13948364    -0.04706537     1.6424344      196.88619      13.293746      20.924467      11.828348     -5.093061       60.874224      72.21506       51.654764      2              227076.19      1.2117682      11363.464      12349.842      2742.5636      898.75189      1692.9243     -17913.885     -26641.138     -42862.099      748.4        
    748600   297.94386     -15696.544      17818.232      2121.6882     -155.53617      585.29105     -1248.3676      196.46807      0.13951843    -0.063724752    0.14972       -0.046299644   -0.065845777    0.13951843    -0.047405749    16.652179      185.5637      -2.8389186     -1.862595      -4.2112697      17.28487       60.827743      72.217573      51.637185      2              226833.48      1.2130648      11239.587      12540.959      2521.4662      839.68873      1708.4346     -17906.324     -26640.355     -42838.245      748.6        
    748800   301.05659     -15566.89       18004.386      2437.4959     -1336.5855     -630.80018     -2930.7406     -448.21572      0.13955322    -0.063993365    0.14976       -0.045256474   -0.066132714    0.13955322    -0.046312534   -10.603262      198.07447     -3.5233066     -4.9955177      6.1524955      24.460016      60.810292      72.220085      51.693667      2              227024.34      1.2120449      11246.246      12431.644      2775.9455      892.30322      1590.7737     -17862.452     -26641.349     -42913.028      748.8        
    749000   296.18716     -15371.434      17713.174      2341.7398     -1432.0192     -236.32039     -2811.4197     -1248.3174      0.13958801    -0.063709628    0.1498        -0.045236012   -0.065829624    0.13958801    -0.046291102   -11.720321      194.5864       0.029088437    2.6603281     -2.8427836      7.560428       60.828726      72.222598      51.694775      2              227105.93      1.2116095      11267.358      12320.327      3044.3068      901.90063      1597.1307     -17861.19      -26641.268     -42905.328      749          
    749200   297.25092     -15570.552      17776.792      2206.2393     -1220.8606     -420.65878     -2524.7586     -717.16457      0.1396228     -0.062756017    0.14984       -0.045047324   -0.064811643    0.1396228     -0.046093494   -1.6005215      206.88257     -0.028280607   -1.8565539      0.91557576     24.899884      60.89068       72.22511       51.704991      2              227390.07      1.2100955      11314.328      12322.535      2760.5106      884.84758      1670.9232     -17882.624     -26641.073     -42852.774      749.2        
    749400   299.6125      -15594.765      17918.023      2323.2588      59.169982     -182.99554     -501.36547      861.87095      0.13965759    -0.062698567    0.14988       -0.04534142    -0.064750348    0.13965759    -0.04640151     14.228243      189.27915      8.7721282     -0.18808272    -0.5517567      19.708783      60.894412      72.227623      51.689067      2              227341.89      1.210352       11487.283      12323.716      2614.1902      873.91755      1653.3183     -17905.62      -26641.57      -42893.871      749.4        
    749600   298.59233     -15651.193      17857.013      2205.8202     -717.90614     -1029.3477     -1471.7505      347.37976      0.13969237    -0.062689974    0.14992       -0.045885524   -0.06474118     0.13969237    -0.046971619   -0.84388085     200.69035     -3.3128834     -7.3490047      11.24294       15.952417      60.89497       72.230135      51.659607      2              227222.3       1.210989       11307.181      12258.666      2780.3751      879.82765      1674.9337     -17911.093     -26641.084     -42877.243      749.6        
    749800   295.9454      -15625.857      17698.716      2072.8597     -599.2999      -315.56471     -2013.7191      531.38408      0.13972716    -0.063516872    0.14996       -0.045418341   -0.065623774    0.13972716    -0.046482088    5.3345681      210.75469     -15.521314      6.1887081      3.8244125      5.8228322      60.841248      72.232648      51.684903      2              227140.91      1.2114229      11464.979      12226.067      2771.3372      857.46168      1600.815      -17906.06      -26640.457     -42945.702      749.8        
    750000   299.0299      -15476.93       17883.182      2406.2523     -710.67903     -629.00856     -2144.3704      641.34188      0.13976194    -0.064621413    0.15          -0.04469464    -0.066803926    0.13976194    -0.045724241    4.4903614      181.66179      17.041521      2.6746987      7.9352802      2.2120163      60.769489      72.23516       51.724087      2              227052.9       1.2118925      11349.535      12391.619      2833.2984      898.48919      1593.2363     -17902.868     -26640.24      -42949.872      750          
Loop time of 15852.2 on 16 procs for 750000 steps with 20064 atoms

Performance: 4.088 ns/day, 5.871 hours/ns, 47.312 timesteps/s, 949.270 katom-step/s
98.9% CPU use with 16 MPI tasks x no OpenMP threads

MPI task timing breakdown:
Section |  min time  |  avg time  |  max time  |%varavg| %total
---------------------------------------------------------------
Pair    | 9529.6     | 10493      | 11013      | 362.1 | 66.19
Bond    | 2393.9     | 2495.2     | 2589.5     |  97.7 | 15.74
Kspace  | 851.91     | 1394.3     | 2460       |1079.4 |  8.80
Neigh   | 760.61     | 760.95     | 761.23     |   0.6 |  4.80
Comm    | 194.58     | 199.02     | 202.28     |  18.4 |  1.26
Output  | 86.682     | 86.685     | 86.692     |   0.0 |  0.55
Modify  | 272.34     | 362.43     | 401.47     | 267.6 |  2.29
Other   |            | 61.1       |            |       |  0.39

Nlocal:           1254 ave        1321 max        1186 min
Histogram: 1 0 1 3 4 3 1 1 1 1
Nghost:        11930.2 ave       12010 max       11828 min
Histogram: 1 3 1 0 1 0 3 3 2 2
Neighs:         636910 ave      673868 max      573176 min
Histogram: 1 0 1 0 2 1 3 5 1 2

Total # of neighbors = 10190559
Ave neighs/atom = 507.90266
Ave special neighs/atom = 5.8041268
Neighbor list builds = 29231
Dangerous builds = 0

#-------------------Wrap up-------------------
write_restart  ${myid}.restart
write_restart  tensile_2_AroCy_L10_pxld_97_replicate_1_FF_PCFF.restart
System init for write_restart ...
PPPM initialization ...
  using 12-bit tables for long-range coulomb (../kspace.cpp:342)
  G vector (1/distance) = 0.18074905
  grid = 15 18 15
  stencil order = 5
  estimated absolute RMS force accuracy = 0.02862211
  estimated relative force accuracy = 8.6194634e-05
  using double precision KISS FFT
  3d grid and FFT values/proc = 1638 300
Generated 45 of 45 mixed pair_coeff terms from sixthpower/sixthpower mixing rule
write_data     ${myid}.data
write_data     tensile_2_AroCy_L10_pxld_97_replicate_1_FF_PCFF.data
System init for write_data ...
PPPM initialization ...
  using 12-bit tables for long-range coulomb (../kspace.cpp:342)
  G vector (1/distance) = 0.18074905
  grid = 15 18 15
  stencil order = 5
  estimated absolute RMS force accuracy = 0.02862211
  estimated relative force accuracy = 8.6194634e-05
  using double precision KISS FFT
  3d grid and FFT values/proc = 1638 300
Generated 45 of 45 mixed pair_coeff terms from sixthpower/sixthpower mixing rule
Total wall time: 4:24:12
