thermo_style   custom step temp pe ke etotal press pxx pyy pzz v_etrue v_eengx v_eengy v_eengz v_etruex v_etruey v_etruez                f_sxx_ave f_syy_ave f_szz_ave f_sxy_ave f_sxz_ave f_syz_ave lx ly lz v_dir vol density ebond eangle edihed                eimp evdwl ecoul elong epair v_Time

restart        ${nsteps} rst1.a.${myid} rst2.a.${myid}
restart        200 rst1.a.${myid} rst2.a.${myid}
restart        200 rst1.a.tensile_2_PBZ_pxld_88_replicate_2_FF_PCFF rst2.a.${myid}
restart        200 rst1.a.tensile_2_PBZ_pxld_88_replicate_2_FF_PCFF rst2.a.tensile_2_PBZ_pxld_88_replicate_2_FF_PCFF
dump           6 all atom 10000 dump.${myid} #every picosecond
dump           6 all atom 10000 dump.tensile_2_PBZ_pxld_88_replicate_2_FF_PCFF 
dump_modify    6 scale no sort id

#-------------------Run-------------------
run            ${steps}
run            750000

CITE-CITE-CITE-CITE-CITE-CITE-CITE-CITE-CITE-CITE-CITE-CITE-CITE

Your simulation uses code contributions which should be cited:

- Type Label Framework: https://doi.org/10.1021/acs.jpcb.3c08419

@Article{Gissinger24,
 author = {Jacob R. Gissinger, Ilia Nikiforov, Yaser Afshar, Brendon Waters, Moon-ki Choi, Daniel S. Karls, Alexander Stukowski, Wonpil Im, Hendrik Heinz, Axel Kohlmeyer, and Ellad B. Tadmor},
 title = {Type Label Framework for Bonded Force Fields in LAMMPS},
 journal = {J. Phys. Chem. B},
 year =    2024,
 volume =  128,
 number =  13,
 pages =   {3282–-3297}
}

CITE-CITE-CITE-CITE-CITE-CITE-CITE-CITE-CITE-CITE-CITE-CITE-CITE

PPPM initialization ...
  using 12-bit tables for long-range coulomb (../kspace.cpp:342)
  G vector (1/distance) = 0.18047664
  grid = 15 15 15
  stencil order = 5
  estimated absolute RMS force accuracy = 0.021603189
  estimated relative force accuracy = 6.5057363e-05
  using double precision KISS FFT
  3d grid and FFT values/proc = 1690 256
Generated 36 of 36 mixed pair_coeff terms from sixthpower/sixthpower mixing rule
Neighbor list info ...
  update: every = 1 steps, delay = 0 steps, check = yes
  max neighbors/atom: 5000, page size: 100000
  master list distance cutoff = 14
  ghost atom cutoff = 14
  binsize = 7, bins = 9 9 9
  1 neighbor lists, perpetual/occasional/extra = 1 0 0
  (1) pair lj/class2/coul/long, perpetual
      attributes: half, newton on
      pair build: half/bin/newton
      stencil: half/bin/3d
      bin: standard
WARNING: Inconsistent image flags (../domain.cpp:1051)
Per MPI rank memory allocation (min/avg/max) = 23.88 | 23.89 | 23.9 Mbytes
   Step          Temp          PotEng         KinEng         TotEng         Press           Pxx            Pyy            Pzz          v_etrue        v_eengx        v_eengy        v_eengz        v_etruex       v_etruey       v_etruez      f_sxx_ave      f_syy_ave      f_szz_ave      f_sxy_ave      f_sxz_ave      f_syz_ave          Lx             Ly             Lz           v_dir          Volume        Density         E_bond        E_angle        E_dihed        E_impro         E_vdwl         E_coul         E_long         E_pair         v_Time    
         0   298            10749.919      17782.505      28532.425      278.57522     -80.483403      228.31165      687.89742      0             -2.4658981e-16  8.4820268e-16 -3.569162e-16  -2.220446e-16   8.8817842e-16 -3.3306691e-16  0              0              0              0              0              0              57.629531      58.639277      59.723494      2              201826.83      1.1722592      9812.0486      9270.1447     -4609.8769      656.93119      2112.6427      12067.236     -18559.207     -4379.3282      0            
       200   298.77922      10526.252      17829.004      28355.256     -602.32166     -718.42051     -1087.4022     -1.142282       3.99992e-05   -2.1228802e-05  4e-05          0.00063253069 -2.1229027e-05  3.99992e-05    0.00063233072 -1.7374788     -9.6006804     -12.860246     -17.28644      -1.3028309      2.4501979      57.628307      58.641622      59.76127       2              201958.28      1.1714962      9763.0035      9232.6517     -4709.3076      653.46844      2028.2937      12118.244     -18560.101     -4413.5639      0.2          
       400   296.11402      10570.946      17669.964      28240.909      421.65333     -54.654567     -137.07865      1456.6932      7.99968e-05   -0.00028220844  8e-05          0.00095447693 -0.00028224827  7.99968e-05    0.00095402171  13.914055      4.2800463      4.404523       0.11963407     4.7631645      6.9501111      57.613267      58.643968      59.780498      2              201978.61      1.1713783      9799.7975      9260.0302     -4764.5421      658.90786      2078.7458      12100.544     -18562.537     -4383.2478      0.4          
       600   299.21416      10693.682      17854.958      28548.639      113.09594      706.32759     -489.21627      122.1765       0.0001199928  -0.0012149594   0.00012        0.0016404412  -0.0012156981   0.0001199928   0.0016390972  -9.6301154     -4.7520096      5.218123      -11.136116      7.6905743      5.0830569      57.559513      58.646314      59.821466      2              201936.53      1.1716224      9858.7825      9220.1243     -4662.7623      649.66066      2085.6008      12105.359     -18563.083     -4372.1235      0.6          
       800   296.81141      10659.332      17711.579      28370.911     -191.25945     -1414.9431      1053.3443     -212.17953      0.0001599872  -0.0021719902   0.00016        0.0025431708  -0.0021743524   0.0001599872   0.0025399424   1.5041696      2.1874362     -12.131418     -17.749908     -11.620205     -4.1592046      57.50436       58.648659      59.875381      2              201932.93      1.1716432      9887.1247      9355.207      -4774.3901      644.05363      2043.1444      12060.759     -18556.567     -4452.6634      0.8          
      1000   294.67947      10690.486      17584.36       28274.846      73.778407      39.406676      506.91297     -324.98442      0.00019998    -0.0041428494   0.0002         0.0036780765  -0.0041514548   0.00019998     0.003671329    12.594988     -1.8772219      5.4371545     -16.875584      17.268012     -3.6567256      57.39078       58.651005      59.943161      2              201770.29      1.1725876      9969.6206      9299.6713     -4818.118       635.27075      2026.789       12135.503     -18558.251     -4395.9586      1            
      1200   298.23983      10817.012      17796.817      28613.829      566.55255      542.96752      837.60058      319.08956      0.0002399712  -0.0065126701   0.00024        0.0052302049  -0.0065339701   0.0002399712   0.0052165749  -19.047538     -24.226586     -0.56528387    -7.1415539      0.17053435     7.7899769      57.254208      58.65335       60.03586       2              201609.49      1.1735229      9912.8118      9378.9984     -4720.2602      661.4879       2056.1961      12086.092     -18558.314     -4416.0257      1.2          
      1400   296.09671      10640.072      17668.931      28309.003     -327.90817     -496.45041     -523.28606      36.011968      0.00027996081 -0.0063753374   0.00028        0.006350909   -0.0063957466   0.00027996081  0.0063308269  -19.508183     -3.3698096      11.962094     -4.2388359      10.291305      10.830747      57.262123      58.655696      60.102792      2              201870.23      1.1720071      9870.7101      9252.3999     -4774.8539      625.32438      2098.4147      12128.403     -18560.326     -4333.5082      1.4          
      1600   298.5972       10740.342      17818.142      28558.484      275.96439      566.34379      172.98183      88.567559      0.00031994881 -0.0062363691   0.00032        0.0063313488  -0.0062558965   0.00031994881  0.00631139     15.193491      26.259486      16.247032     -8.2387982     -7.6853495      0.9910825      57.270132      58.658041      60.101624      2              201902.62      1.1718192      9893.3739      9290.4031     -4762.8813      656.19526      2105.3993      12115.496     -18557.644     -4336.7485      1.6          
      1800   298.06433      10746.267      17786.344      28532.611     -184.9772      -448.83719      622.98648     -729.0809       0.00035993522 -0.0058019442   0.00036        0.0054755772  -0.0058188409   0.00035993522  0.0054606407  -25.192207     -3.2556041     -1.9102872     -23.662216      4.6563861      19.142055      57.295167      58.660387      60.050514      2              201827.18      1.1722572      9796.5475      9327.4175     -4675.8944      641.47653      2078.284       12136.322     -18557.886     -4343.2801      1.8          
      2000   295.4876       10744.482      17632.583      28377.065      752.80062      500.15203      931.74313      826.50671      0.00039992002 -0.0037751533   0.0004         0.004727406   -0.0037822972   0.00039992002  0.0047162669   3.925194      -8.8256716     -10.313628      6.359642       2.0257866      10.968021      57.41197       58.662733      60.005831      2              202096.22      1.1706966      9945.8827      9332.0543     -4874.8644      652.27876      2123.0605      12123.739     -18557.668     -4310.8691      2            
      2200   299.47097      10819.631      17870.282      28689.914     -469.05352      249.99719     -800.43802     -856.71973      0.00043990323 -0.001725216    0.00044        0.0029056017  -0.0017267059   0.00043990323  0.0029013886   12.686888     -7.5473828      11.141265     -18.330062     -16.915646      17.177556      57.530107      58.665078      59.897026      2              202152.96      1.170368       9803.5002      9358.2263     -4646.5514      648.5827       2081.05        12134.188     -18559.365     -4344.1266      2.2          
      2400   297.07816      10723.127      17727.496      28450.624      657.14746      950.51072      533.44841      487.48323      0.00047988484  1.1601955e-05  0.00048        0.0007915325   1.1601888e-05  0.00047988484  0.0007912194   0.59673511     21.281009      1.9188461     -11.340448      2.5618096     -1.2731734      57.630199      58.667424      59.770767      2              202085.88      1.1707565      9964.5583      9278.2283     -4785.7231      632.46237      2126.2136      12065.888     -18558.5       -4366.3985      2.4          
      2600   297.7275       10688.307      17766.244      28454.552     -281.95657     -926.55709      314.83817     -234.1508       0.00051986485  0.0018270002   0.00052        0.00018814756  0.0018253333   0.00051986485  0.00018812987  17.10658      -27.890153     -29.040522     -2.943144      -9.9636897     -8.0000025      57.73482       58.669769      59.73473       2              202338.77      1.1692932      9965.5161      9175.1562     -4704.2321      625.56142      2039.1415      12146.401     -18559.236     -4373.6943      2.6          
      2800   298.14809      10737.111      17791.342      28528.453     -99.399482     -313.2743      -578.39667      593.47253      0.00055984326  0.0010365098   0.00056        0.00052554601  0.001035973    0.00055984326  0.00052540796  24.295208     -10.786039      4.0585722     -16.297979     -14.017662     -0.11840985     57.689264      58.672115      59.754881      2              202255.4       1.1697752      9796.9458      9443.3538     -4762.3658      621.22611      2074.7175      12117.888     -18554.655     -4362.0492      2.8          
      3000   299.22051      10606.698      17855.336      28462.034      1087.5011      720.23696      834.92832      1707.3379      0.00059982007 -0.0022458807   0.0006         0.0016100734  -0.0022484064   0.00059982007  0.0016087786   14.711215     -23.941664     -7.5213471     -18.887735     -7.2239952     -2.2837629      57.500101      58.67446       59.819653      2              201818.79      1.1723059      9793.4005      9389.8659     -4849.1872      642.82698      2109.6701      12076.804     -18556.683     -4370.2084      3            
      3200   297.13289      10608.93       17730.762      28339.692      116.72965      619.86887      257.83831     -527.51822      0.00063979529 -0.0038566808   0.00064        0.0032743268  -0.0038641369   0.00063979529  0.0032689779  -21.213634     -1.8606988     -4.8941611     -32.596573     -10.455167      3.6699447      57.407272      58.676806      59.919048      2              201835.84      1.1722069      9913.5712      9370.3665     -4878.0266      638.62615      2011.6464      12111.577     -18558.831     -4435.6073      3.2          
      3400   299.35816      10726.297      17863.551      28589.847     -419.6865      -408.10358     -770.11433     -80.841586      0.0006797689  -0.0048196767   0.00068        0.0040915559  -0.0048313288   0.0006797689   0.0040832083  -6.4044353     -3.5461196      13.580805     -8.3966098      8.9843537     -0.90296294     57.351775      58.679152      59.967856      2              201813.03      1.1723393      9768.8762      9272.571      -4515.7656      653.73695      1953.3286      12153.467     -18559.917     -4453.1219      3.4          
      3600   300.53593      10662.247      17933.831      28596.078      779.77333      938.69166      884.2567       516.37162      0.00071974092 -0.005305772    0.00072        0.0035650316  -0.0053198976   0.00071974092  0.0035586919  -16.189537      16.513155     -1.1271737     -7.2882526      5.6765214      1.6019282      57.323761      58.681497      59.93641       2              201616.74      1.1734807      9951.0391      9381.883      -4925.379       646.55401      2033.2614      12134.134     -18559.245     -4391.8503      3.6          
      3800   298.69321      10515.355      17823.871      28339.226     -199.87011     -943.50165      1308.4087     -964.5174       0.00075971135 -0.0048973664   0.00076        0.0030925052  -0.0049093977   0.00075971135  0.0030877332  -4.1293839     -3.1334591      8.1188849      10.701361     -9.3115817      0.4672583      57.347298      58.683843      59.908189      2              201612.61      1.1735047      9662.4082      9304.684      -4607.0214      631.67732      1952.7775      12127.814     -18556.984     -4476.3928      3.8          
      4000   298.12694      10797.22       17790.08       28587.3       -474.91129     -1127.1487      346.80422     -644.38945      0.00079968017 -0.002969387    0.0008         0.0018900088  -0.0029738044   0.00079968017  0.001888225   -14.874244      9.5411428     -9.8916889     -22.514456     -1.4395527      4.8126511      57.458406      58.686188      59.836371      2              201769.13      1.1725944      9856.7042      9362.6799     -4672.2019      656.31657      2022.1078      12128.09      -18556.477     -4406.2787      4            
      4200   298.0402       11015.756      17784.904      28800.66       345.66724      188.74503     -165.0079       1013.2646      0.0008396474   0.00016170928  0.00084        0.0011336662   0.00016169621  0.0008396474   0.0011330241  -4.4506714      2.8726166      2.7208819     -8.7215507      13.346122      0.62128371     57.63885       58.688534      59.7912        2              202258.06      1.1697598      10127.39       9312.1215     -4723.8994      648.97315      2075.5557      12133.963     -18558.349     -4348.8295      4.2          
      4400   296.27686      10737.342      17679.681      28417.023      565.8205      -251.94594      1322.0044      627.40298      0.00087961303  0.00080633595  0.00088        0.0006171513   0.00080601103  0.00087961303  0.00061696094  31.114845      1.6911934      8.9790893     -10.2486        0.86711898     4.183612       57.675999      58.690879      59.760352      2              202292.09      1.1695631      9896.029       9355.795      -4828.7781      653.85114      2099.5742      12117.538     -18556.667     -4339.555       4.4          
      4600   296.70788      10803.232      17705.401      28508.632     -800.05193      164.50944     -764.1265      -1800.5387      0.00091957706 -0.0011039711   0.00092        0.00073023278 -0.0011045809   0.00091957706  0.00072996629  37.625134     -7.7113481     -24.046014     -10.471291     -1.7785586      4.7840831      57.565909      58.693225      59.767106      2              201936.84      1.1716205      9831.6828      9370.0441     -4659.6484      655.83271      2067.4513      12094.868     -18556.999     -4394.6797      4.6          
      4800   297.25521      10960.494      17738.061      28698.555      672.55183      1081.6353     -235.83559      1171.8557      0.00095953949 -0.0031475633   0.00096        0.0019531827  -0.0031525273   0.00095953949  0.0019512777  -31.745339      11.501929     -5.8676101     -22.90768       15.857024      7.6000448      57.448138      58.695571      59.840144      2              201778.05      1.1725426      9883.1843      9557.8135     -4781.376       630.53497      2110.1188      12117.096     -18556.878     -4329.6631      4.8          
      5000   298.70901      10525.839      17824.814      28350.653     -25.485519     -825.50871      994.50319     -245.45104      0.00099950033 -0.0028999194   0.001          0.0033944671  -0.0029041323   0.00099950033  0.0033887189  -6.9732093     -19.843043      2.1181348     -24.894618     -0.60106593    -0.2627488      57.46241       58.697916      59.926223      2              202126.58      1.1705208      9634.6888      9335.0287     -4640.1979      637.57732      1998.8554      12119.194     -18559.307     -4441.2575      5            
      5200   298.43872      10776.915      17808.685      28585.601     -123.1015      -726.90788      22.828486      334.77488      0.0010394596  -0.0027037594   0.00104        0.003265626   -0.0027074212   0.0010394596   0.0032603054   7.993959       34.027736      17.558388     -26.948833     -6.2658237      10.846918      57.473714      58.700262      59.918528      2              202148.46      1.170394       9849.1768      9363.1515     -4771.9806      642.36186      2168.8444      12080.045     -18554.683     -4305.794       5.2          
      5400   299.41946      10848.159      17867.208      28715.368     -340.86687      693.58238     -181.87629     -1534.3067      0.0010794172  -0.0024300883   0.00108        0.0033537116  -0.0024330458   0.0010794172   0.0033481005  -13.599434     -11.206097     -10.026496     -12.210576      16.14596      -8.6214536      57.489486      58.702607      59.923789      2              202229.77      1.1699235      9970.9157      9364.8349     -4752.8913      643.52515      2084.2897      12094.918     -18557.432     -4378.225       5.4          
      5600   295.88661      10670.974      17656.393      28327.367      159.04754      430.71199     -698.40134      744.83196      0.0011193733  -0.0027055902   0.00112        0.0035158974  -0.0027092569   0.0011193733   0.0035097311   12.544518      17.15367      -5.8570812     -0.49756231    -6.3694471      0.76234892     57.473609      58.704953      59.933475      2              202214.68      1.1700108      9640.7572      9368.4222     -4652.4992      639.43084      2079.9206      12155.39      -18560.447     -4325.1368      5.6          
      5800   297.85566      10809.784      17773.892      28583.676     -696.13203      155.0523      -839.09101     -1404.3574      0.0011593277  -0.0020623261   0.00116        0.0044135716  -0.0020644556   0.0011593277   0.0044038603  -10.140173      28.225093      6.6945348     -9.7298636     -6.1994528      1.4950885      57.51068       58.707298      59.987087      2              202534.2       1.1681649      9846.4775      9340.277      -4631.0265      653.14774      2004.627       12155.879     -18559.598     -4399.0922      5.8          
      6000   299.66111      10700.1        17881.628      28581.728     -480.23733     -530.30241     -47.799491     -862.61008      0.0011992806  -0.0031171369   0.0012         0.0036927651  -0.0031220053   0.0011992806   0.0036859636   26.643392      28.89409       3.9984976     -11.685122      14.830887      2.9379471      57.449891      58.709644      59.944038      2              202183.01      1.170194       9892.328       9140.0184     -4678.5928      640.0626       2082.5617      12184.237     -18560.515     -4293.7163      6            
      6200   297.41866      10693.233      17747.815      28441.048      251.37896     -287.32119     -169.17518      1210.6332      0.0012392318  -0.0037618746   0.00124        0.0034267855  -0.0037689683   0.0012392318   0.0034209275  -32.854741     -10.514852      8.7168597      5.5895124      17.43375       10.832068      57.412735      58.71199       59.928153      2              202006.77      1.171215       9797.7543      9398.536      -4802.1853      657.26371      2066.1071      12140.476     -18564.718     -4358.1355      6.2          
      6400   300.869        10698.036      17953.706      28651.742     -726.2132      -868.016       -1183.1099     -127.51369      0.0012791815  -0.0045600428   0.00128        0.0019223416  -0.0045704715   0.0012791815   0.0019204963   32.514623      6.0589679     -2.3845864     -24.116019      4.6453981     -6.3580369      57.366737      58.714335      59.838302      2              201550.35      1.1738672      9764.2426      9293.7073     -4617.2546      645.73578      2040.4818      12135.05      -18563.928     -4388.3955      6.4          
      6600   298.996        10766.491      17841.94       28608.431      495.00305     -93.512524      314.6419       1263.8798      0.0013191296  -0.0059930658   0.00132        0.0010844791  -0.0060110963   0.0013191296   0.0010838914  -24.22309       3.0537094     -30.017381     -4.1823434     -8.9297158     -2.1885815      57.284153      58.716681      59.788262      2              201099.93      1.1764964      9885.0766      9202.5167     -4685.4953      649.25677      2095.0566      12179.253     -18559.173     -4284.8635      6.6          
      6800   295.82273      10728.941      17652.582      28381.522     -150.24626      282.62136      574.07652     -1307.4367      0.001359076   -0.0053469304   0.00136        0.0044191487  -0.0053612764   0.001359076    0.004409413   -12.696365      20.900895     -0.37923912    -2.0084414     -9.1170138     -4.5838998      57.321389      58.719026      59.987421      2              201909.03      1.1717819      9900.3588      9327.4375     -4695.6987      649.04862      1940.9708      12166.541     -18559.717     -4452.2056      6.8          
      7000   300.82084      10752.515      17950.833      28703.347      13.817082     -59.184804      512.58925     -411.9532       0.0013990209  -0.0046426443   0.0014         0.0054479842  -0.0046534548   0.0013990209   0.0054331977   5.8545166     -3.0149277      19.931011     -7.081043      -9.1172855     -3.6697075      57.361977      58.721372      60.048866      2              202267.04      1.1697079      9764.7171      9350.5913     -4647.5856      637.19178      2072.4855      12133.681     -18558.566     -4352.3997      7            
      7200   298.91218      10755.615      17836.937      28592.552     -257.57105     -130.32965     -501.6907      -140.6928       0.0014389642  -0.0025123457   0.00144        0.0058070709  -0.0025155069   0.0014389642   0.0057902749  -2.0618221     -1.4577932     -0.19730738    -14.076223     -16.902696     -1.6473809      57.484745      58.723717      60.070312      2              202780.43      1.1667465      9836.6766      9309.4615     -4726.8007      636.5403       2080.1056      12176.401     -18556.77      -4300.263       7.2          
      7400   297.76075      10713.303      17768.228      28481.532      134.14599      49.390562     -331.82353      684.87094      0.0014789059  -0.0024778898   0.00148        0.0049192707  -0.0024809648   0.0014789059   0.0049072106   19.042896      3.0952815      13.567538     -15.369466      7.2563649      14.658922      57.486731      58.726063      60.01729       2              202616.53      1.1676903      9896.4022      9327.7837     -4739.2309      640.84007      1997.0859      12145.99      -18555.567     -4412.4916      7.4          
      7600   296.82581      10718.904      17712.438      28431.342      61.303973     -227.70252      688.41047     -276.79604      0.001518846   -0.0038939209   0.00152        0.004832575   -0.003901522    0.001518846    0.0048209356   22.88888       19.31095      -7.2548296     -11.832724      7.9143801     -1.3756691      57.405126      58.728409      60.012112      2              202319.53      1.1694044      9769.3864      9341.6907     -4683.8997      654.61949      2048.9955      12145.932     -18557.82      -4362.8928      7.6          
      7800   297.68899      10683.581      17763.946      28447.527     -429.71374     -1471.2204      89.353691      92.72547       0.0015587845  -0.0058460089   0.00156        0.0052020413  -0.0058631637   0.0015587845   0.0051885575  -21.33764      -9.0339161     -3.2584567     -9.1849624     -5.0725732      6.0843113      57.292628      58.730754      60.034178      2              202005.36      1.1712232      9849.1268      9349.0983     -4702.4185      648.03461      2043.287       12051.836     -18555.383     -4460.2603      7.8          
      8000   299.18828      10819.21       17853.413      28672.623      542.63728      1214.312       93.200771      320.39904      0.0015987214  -0.0069753873   0.0016         0.0048239874  -0.006999829    0.0015987214   0.0048123893  -15.804187      12.818755      26.711793     -13.675638     -1.1316247     -2.7071088      57.227542      58.7331        60.011599      2              201708.04      1.1729495      9808.9454      9396.9837     -4766.3963      648.59015      2126.3628      12163.067     -18558.343     -4268.9128      8            
      8200   296.62649      10624.285      17700.544      28324.829      793.57874      847.20978      634.85469      898.67176      0.0016386567  -0.0071771849   0.00164        0.0030661294  -0.0072030648   0.0016386567   0.0030614385  -5.522472       3.5144535     -17.00297      -16.708925      6.2735462      11.13485       57.215913      58.735445      59.906613      2              201322.29      1.175197       9745.1548      9348.4488     -4794.576       649.54548      2094.6181      12142.305     -18561.211     -4324.288       8.2          
      8400   298.0824       10655.288      17787.422      28442.71       1197.3466      2286.8251      511.16023      794.0544       0.0016785904  -0.0058550384   0.00168        0.00212936    -0.0058722464   0.0016785904   0.0021270962  -27.282219     -20.2631       -7.2013395     -20.329901     -1.0148975      25.661642      57.292107      58.737791      59.850666      2              201410.17      1.1746842      9873.0492      9285.2651     -4764.5024      656.33003      2014.8936      12155.77      -18565.518     -4394.8539      8.4          
      8600   299.36775      10723.339      17864.123      28587.462     -542.23674     -1514.7991     -364.23389      252.32282      0.0017185225  -0.0041046541   0.00172        6.4867059e-05 -0.0041131013   0.0017185225   6.4864955e-05  24.815567      2.4862888      5.7285382     -7.9282134      5.4996673     -1.2255671      57.392981      58.740136      59.727368      2              201357.17      1.1749934      9885.9253      9169.8826     -4601.9349      640.79407      2068.553       12120.175     -18560.056     -4371.3278      8.6          
      8800   298.28498      10642.252      17799.511      28441.763     -224.12266      490.51682     -211.61342     -951.27137      0.001758453   -0.0035937866   0.00176        0.00055059778 -0.0036002598   0.001758453    0.00055044626  10.085351     -0.41469968    -22.696192     -19.768328     -8.06775        20.120766      57.422422      58.742482      59.756377      2              201566.36      1.173774       9698.8506      9269.2021     -4613.606       640.01376      2094.1712      12114.466     -18560.846     -4352.2082      8.8          
      9000   298.27764      10807.752      17799.073      28606.824     -393.70746      486.55984     -226.40442     -1441.2778      0.0017983819  -0.002855696    0.0018         0.0025152719  -0.0028597813   0.0017983819   0.0025121139  -21.360143      1.2352876     -8.4300347     -14.482061      3.4046472     -11.509357      57.464958      58.744828      59.873714      2              202119.83      1.1705598      9902.4752      9277.1929     -4664.781       642.74584      2071.6586      12135.749     -18557.289     -4349.8811      9            
      9200   300.5679       10735.655      17935.739      28671.394     -205.82168     -252.46027     -216.6189      -148.38588      0.0018383093  -0.0023482454   0.00184        0.0039959476  -0.0023510068   0.0018383093   0.003987985    19.694477      31.34508       7.2195848      0.94138118    -3.4149511      18.521787      57.494202      58.747173      59.962145      2              202529.45      1.1681923      9818.9164      9304.6287     -4731.3136      650.00025      2083.81        12167.3       -18557.687     -4306.5771      9.2          
      9400   298.89483      10627.635      17835.902      28463.537      496.36991      751.62065     -135.29899      872.78807      0.001878235   -0.0020113162   0.00188        0.0046319456  -0.0020133416   0.001878235    0.0046212511   3.5872826      28.011553      14.1018       -4.7338367      0.98049586     5.1994924      57.513619      58.749519      60.000129      2              202734.28      1.1670121      9885.1235      9216.9054     -4813.9376      641.31371      2089.7879      12166.582     -18558.14      -4301.7698      9.4          
      9600   297.35987      10824.739      17744.307      28569.046      939.38832      923.80425     -300.62217      2194.9829      0.0019181592  -0.0025554398   0.00192        0.004772518   -0.0025587106   0.0019181592   0.0047611656   0.73965097    -11.910565      6.5796553      2.4120313      14.480837      23.346546      57.482262      58.751864      60.008525      2              202660.19      1.1674387      9843.8498      9459.2093     -4798.1093      638.07314      2096.3033      12143.34      -18557.927     -4318.2838      9.6          
      9800   302.14343      10748.701      18029.755      28778.457     -1240.7488     -1360.8834     -1003.6767     -1357.6864      0.0019580817  -0.0034635337   0.00196        0.0055268873  -0.0034695456   0.0019580817   0.0055116701   12.691859      15.02405      -17.157648     -21.868049     -5.5821183      7.5838967      57.429929      58.75421       60.053579      2              202635.79      1.1675793      9749.3467      9379.2049     -4669.6757      649.68475      2075.7541      12125.138     -18560.752     -4359.8594      9.8          
     10000   298.90468      10574.497      17836.49       28410.987      473.54053     -60.280622      809.2352       671.66702      0.0019980027  -0.0054722045   0.002          0.0044683047  -0.0054872319   0.0019980027   0.0044583515   1.4293108      10.413887      31.54926      -25.761524      7.0018941      18.452087      57.31417       58.756555      59.990356      2              202022.52      1.1711237      9811.28        9416.4778     -4805.6825      621.42638      2025.8051      12065.635     -18560.445     -4469.005       10           
     10200   296.29117      10808.168      17680.535      28488.702      505.15814      747.64184      345.07366      422.75891      0.002037922   -0.0071056684   0.00204        0.0035438961  -0.0071310339   0.002037922    0.0035376313  -14.611281     -9.7605546     -15.398389     -17.953859      10.70802       19.069199      57.220034      58.758901      59.935147      2              201513.13      1.174084       9960.6114      9326.5941     -4816.1693      659.2073       2139.0536      12099.218     -18560.348     -4322.0758      10.2         
     10400   300.8523       10744.512      17952.71       28697.223      867.39821      785.55905      266.35211      1550.2835      0.0020778398  -0.0066854715   0.00208        0.0040818692  -0.0067079194   0.0020778398   0.004073561   -24.150757     -10.667944     -13.805775     -8.8009439     -5.9389486      4.4590883      57.24425       58.761247      59.967277      2              201714.54      1.1729118      9876.4309      9310.4206     -4790.3486      652.43793      2127.2978      12128.684     -18560.411     -4304.4285      10.4         
     10600   296.09115      10694.254      17668.599      28362.853      37.174684     -782.84662      287.52688      606.84379      0.002117756   -0.0051511345   0.00212        0.005041835   -0.0051644474   0.002117756    0.0050291675  -4.4993689      10.371794      12.703481     -9.6034465     -13.580764      11.914732      57.332673      58.763592      60.02461       2              202227.34      1.1699375      9793.4981      9323.3543     -4699.6681      632.30489      2075.2551      12130.382     -18560.872     -4355.235       10.6         
     10800   298.66016      10802.032      17821.899      28623.931     -26.491316     -325.15212      161.71937      83.958799      0.0021576706  -0.0030354515   0.00216        0.0054622439  -0.0030400678   0.0021576706   0.0054473799   5.9181944      25.67567       7.5874554     -16.41155       3.1218868      9.4717661      57.454599      58.765938      60.049718      2              202750.27      1.1669201      9765.5949      9324.8654     -4625.7215      645.29433      2054.8451      12195.459     -18558.305     -4308.001       10.8         
     11000   295.38058      10814.692      17626.197      28440.889      4.08272       -690.5762      -102.92814      805.7525       0.0021975835  -0.0031309024   0.0022         0.0043096455  -0.003135814    0.0021975835   0.0043003856   23.767213      21.395252     -0.13480187    -27.356623     -0.50151424    -14.639046      57.449098      58.768283      59.980881      2              202506.54      1.1683245      9839.9541      9294.8571     -4635.4615      652.98584      2080.6506      12142.794     -18561.088     -4337.6436      11           
     11200   298.9788       10567.595      17840.913      28408.508      329.41405      96.870635      481.2197       410.15182      0.0022374949  -0.0031669037   0.00224        0.0037853911  -0.003171929    0.0022374949   0.0037782445  -11.579651      17.601285     -19.396406     -11.450987      13.05152      -0.84781185     57.447023      58.770629      59.94957       2              202401.6       1.1689303      9659.6216      9259.6638     -4655.4169      642.79251      2099.5227      12123.008     -18561.597     -4339.0662      11.2         
     11400   298.89956      10745.878      17836.185      28582.063     -458.68873     -250.275       -539.19939     -586.5918       0.0022774047  -0.0029201222   0.00228        0.0039579478  -0.0029243941   0.0022774047   0.0039501358   5.1906405      22.313008      9.3754019     -7.6840144     -3.3325242     -2.9750243      57.461245      58.772974      59.959876      2              202494.59      1.1683934      9776.8842      9369.6795     -4654.5197      655.35485      2057.8882      12098.162     -18557.571     -4401.5207      11.4         
     11600   296.08026      10507.425      17667.949      28175.373      88.543118      164.04916      110.6249      -9.0447008      0.002317313   -0.0031368911   0.00232        0.0030561158  -0.0031418214   0.002317313    0.0030514554  -4.4201377      16.322248      5.7544304     -20.070484      4.2535399     -14.918416      57.448753      58.77532       59.906015      2              202276.78      1.1696515      9815.0071      9209.7409     -4784.3802      640.69068      2062.0673      12118.033     -18553.734     -4373.6339      11.6         
     11800   296.46623      10738.086      17690.981      28429.067     -387.4057       380.59715     -801.10985     -741.70439      0.0023572196  -0.0025536201   0.00236        0.0026345687  -0.0025568862   0.0023572196   0.0026311043  -2.2498311      11.912588     -7.5883996      2.9602254     -25.662894      16.361001      57.482367      58.777666      59.880839      2              202318.15      1.1694124      9872.9605      9333.5409     -4764.7263      650.46049      2136.5474      12066.544     -18557.24      -4354.1492      11.8         
     12000   297.51188      10755.431      17753.378      28508.809      129.2966       348.29416     -71.556759      111.1524       0.0023971246  -0.0013000808   0.0024         0.0022240274  -0.0013009266   0.0023971246   0.0022215579   3.4596396      15.39661       7.0776553     -19.839631      17.711103     -0.68894952     57.554607      58.780011      59.85632       2              202497.55      1.1683764      9809.189       9405.597      -4736.8915      635.46093      2100.202       12101.738     -18559.864     -4357.9246      12           
     12200   295.26785      10624.082      17619.47       28243.552      262.73668      1369.8759     -318.05712     -263.60874      0.002437028   -0.00018167243  0.00244        0.0011416505  -0.00018168893  0.002437028    0.0011409993   2.7780126      15.434966     -5.6968698     -13.629809      6.1291573      10.448438      57.619061      58.782357      59.791677      2              202513.46      1.1682846      9727.9343      9274.4271     -4716.7205      639.19033      2113.6595      12143.932     -18558.34      -4300.7492      12.2         
     12400   298.02143      10683.049      17783.784      28466.833      79.507519     -61.222191     -150.78023      450.52498      0.0024769299   0.0008578918   0.00248       -0.00069397058  0.00085752402  0.0024769299  -0.00069421149  5.8924054      22.313514     -3.1929065     -24.172119     -2.8880842      11.528448      57.67897       58.784702      59.682047      2              202360.4       1.1691682      9960.9937      9405.7698     -4912.9983      643.35119      2070.0517      12072.111     -18556.23      -4414.0677      12.4         
     12600   297.18222      10821.682      17733.706      28555.388     -10.000402      519.15302      10.736371     -559.8906       0.0025168301   0.00065987821  0.00252       -0.0014595991   0.00065966058  0.0025168301  -0.0014606653   9.0061646      6.1714215     -12.291989     -8.1175613     -7.1359938      5.5513719      57.667559      58.787048      59.636321      2              202173.42      1.1702495      9852.1132      9343.2141     -4695.0545      640.95377      2118.3209      12122.318     -18560.183     -4319.5445      12.6         
     12800   297.42165      10578.118      17747.994      28326.112     -60.099601     -199.15926     -409.04352      427.90398      0.0025567288   0.00090599477  0.00256       -0.0016551305   0.00090558461  0.0025567288  -0.0016565018  -18.886939      2.8981468     -18.076617     -31.108215      7.7564108      12.418506      57.681743      58.789393      59.624643      2              202191.62      1.1701442      9887.1414      9187.6734     -4767.8498      644.92737      2083.9862      12101.982     -18559.742     -4373.7739      12.8         
     13000   297.53441      10690.58       17754.722      28445.302     -110.74801     -130.6876       101.37405     -302.93049      0.0025966258   0.0018432936   0.0026         0.00017043558  0.0018415968   0.0025966258   0.00017042106  13.829426      31.318082      0.38486152    -18.350886     -5.2573037      1.2986168      57.735759      58.791739      59.733673      2              202759.12      1.1668691      9756.9857      9447.6311     -4787.4889      638.90922      2095.4993      12094.958     -18555.914     -4365.4569      13           
     13200   298.78153      10737.331      17829.142      28566.473     -83.846768     -259.92458     -448.114        456.49828      0.0026365213   0.0013161866   0.00264        0.0012764201   0.0013153212   0.0026365213   0.0012756061   22.553264      45.238861      3.0444369     -20.5679       -7.1609235     -1.9053246      57.705382      58.794085      59.799726      2              202884.63      1.1661473      9818.1294      9339.9143     -4757.1198      633.67281      2090.8202      12167.594     -18555.68      -4297.2659      13.2         
     13400   293.76296      10824.014      17529.669      28353.682     -780.35749      33.842137     -634.78067     -1740.1339      0.0026764152  -0.0017814808   0.00268        0.003066658   -0.0017830696   0.0026764152   0.0030619654   4.0408297      30.353049     -0.6357882     -3.3935199      0.63205717     9.8598133      57.526865      58.79643       59.906645      2              202626.7       1.1676317      9892.3959      9271.0628     -4605.0663      651.23071      2007.2812      12162.869     -18555.759     -4385.6095      13.4         
     13600   295.95811      10729.959      17660.66       28390.619     -402.6213       101.93262     -1161.5032     -148.29336      0.0027163075  -0.003898372    0.00272        0.0044126177  -0.0039059904   0.0027163075   0.0044029107  -19.09743       19.047172     -5.089205      -7.4220549     -13.127429      0.28502565     57.404869      58.798776      59.98703       2              202476.39      1.1684985      9779.5063      9321.8282     -4700.5948      641.59686      2116.2859      12130.955     -18559.619     -4312.3775      13.6         
     13800   298.81139      10770.793      17830.923      28601.716     -573.30598     -1164.7446      406.87206     -962.04537      0.0027561982  -0.004579508    0.00276        0.0057805023  -0.0045900261   0.0027561982   0.0057638593   11.768259      17.459998      1.7304837     -14.077402     -1.2109865      5.3557307      57.365616      58.801121      60.068725      2              202621.57      1.1676612      9873.6813      9254.6269     -4589.8261      640.85166      2048.4424      12102.831     -18559.814     -4408.5409      13.8         
     14000   297.58419      10570.541      17757.693      28328.234     -661.7715      -496.19967     -1097.6828     -391.43204      0.0027960873  -0.0055143607   0.0028         0.0063243275  -0.0055296209   0.0027960873   0.0063044129   0.71807948     16.296866      18.37479      -7.9828696      12.271864      2.7367632      57.311741      58.803467      60.101204      2              202548.81      1.1680807      9879.3793      9240.3854     -4755.4892      631.27172      2006.1046      12126.795     -18557.906     -4425.0062      14           
     14200   296.855        10734.757      17714.18       28448.936     -665.80739      164.53907     -1291.2036     -870.75767      0.0028359748  -0.0068419746   0.00284        0.0072151449  -0.0068654882   0.0028359748   0.0071892402  -14.706094      5.6071498      1.7504914     -19.893547      14.38641      -6.421263       57.235231      58.805812      60.154407      2              202465.55      1.168561       9865.4061      9289.0062     -4700.5798      646.38374      2097.6924      12095.966     -18559.118     -4365.4597      14.2         
     14400   299.61708      10772.784      17879.001      28651.785      1.4701183      48.082512     -191.31222      147.64006      0.0028758607  -0.006694725    0.00288        0.0065049052  -0.0067172352   0.0028758607   0.0064838396  -11.154946      15.962439      10.42657      -16.499142      2.7094662     -2.7070496      57.243717      58.808158      60.111989      2              202360.85      1.1691656      9989.6224      9229.208      -4718.8957      655.05565      2058.2283      12117.046     -18557.48      -4382.2065      14.4         
     14600   293.95099      10759.957      17540.889      28300.846     -265.68163     -56.622705     -176.25994     -564.16225      0.0029157451  -0.0053593232   0.00292        0.0044795078  -0.0053737359   0.0029157451   0.0044695047  -0.51985226     18.844881      11.869497     -6.5917594      9.4891065      3.3745023      57.320675      58.810504      59.991025      2              202233.21      1.1699036      9937.6292      9200.6792     -4639.8784      651.78388      2025.0388      12144.499     -18559.795     -4390.2567      14.6         
     14800   297.70016      10619.099      17764.613      28383.712     -1186.4299     -1930.4623     -1277.3062     -351.52117      0.0029556278  -0.0045236043   0.00296        0.0018949647  -0.0045338667   0.0029556278   0.0018931716  -5.613167       14.591183     -6.6818624     -7.4259629     -2.1261314      0.2180387      57.368837      58.812849      59.836667      2              201890.4       1.1718901      9895.615       9225.2484     -4691.1767      653.93616      1964.3134      12130.656     -18559.493     -4464.5236      14.8         
     15000   296.36509      10792.604      17684.946      28477.55       375.51402      1081.5934     -472.19059      517.13927      0.002995509   -0.0032092515   0.003          0.00030048803 -0.0032144122   0.002995509    0.00030044289 -1.3995854      9.873216      -4.7318953     -26.304221     -2.8229675      16.681185      57.444583      58.815195      59.74144       2              201843.28      1.1721636      9933.7436      9325.8573     -4794.821       637.97766      2106.6371      12143.138     -18559.928     -4310.1535      15           
     15200   294.48512      10604.991      17572.762      28177.753     -111.9725      -218.30187     -194.05633      76.440688      0.0030353885  -0.0012856597   0.00304        0.00098843002 -0.0012864869   0.0030353885   0.00098794184 -13.165828      25.39004      -12.784657     -12.077203      4.6089309      4.1114975      57.555439      58.81754       59.782526      2              202379.95      1.1690553      9881.8031      9273.1081     -4794.5113      632.24666      2047.3779      12127.362     -18562.396     -4387.6559      15.2         
     15400   295.61571      10815.303      17640.228      28455.531      522.29386      507.66187      665.33624      393.88348      0.0030752665   0.00012188686  0.00308        0.0015542713   0.00012187943  0.0030752665   0.0015530647   14.295573      20.471486     -3.8268468     -11.564114     -4.6885058     -15.569588      57.636555      58.819886      59.81632       2              202787.83      1.1667039      9873.4317      9339.4185     -4721.552       644.73689      2090.9627      12146.284     -18557.978     -4320.7319      15.4         
     15600   297.95664      10819.272      17779.918      28599.19      -711.69871     -1402.7743      197.63443     -929.95628      0.0031151429  -0.00024955845  0.00312        0.0017475595  -0.0002495896   0.0031151429   0.0017460343   20.254549      25.237578     -0.47660725    -3.6220138      1.7380304     -9.5940032      57.615149      58.822231      59.827864      2              202759.72      1.1668657      9882.9849      9356.7471     -4642.9879      649.82937      2067.1628      12063.543     -18558.008     -4427.302       15.6         
     15800   299.24791      10637.176      17856.971      28494.147      69.278297      202.22739     -73.58619       79.193691      0.0031550177  -0.0019543092   0.00316        0.0030554035  -0.0019562213   0.0031550177   0.0030507453   17.741652      8.5489725     -7.9154051     -15.205653     -23.444642      6.6546718      57.516905      58.824577      59.905973      2              202686.32      1.1672882      9822.2174      9251.1118     -4716.4088      634.62174      2032.7332      12169.341     -18556.44      -4354.3666      15.8         
     16000   296.60009      10559.034      17698.968      28258.002     -874.74482     -694.16328     -1023.713      -906.35818      0.0031948909  -0.0033020832   0.0032         0.0038993338  -0.0033075471   0.0031948909   0.0038917511  -20.04297      -21.927019     -4.363774      -15.437373      0.20840336     5.5628761      57.439233      58.826923      59.956375      2              202590.99      1.1678375      9978.4399      9271.062      -4908.7832      605.72851      2013.3407      12156.841     -18557.595     -4387.4132      16           
     16200   300.57542      10702.866      17936.188      28639.054      640.92249      761.25033      761.51496      400.00218      0.0032347625  -0.0045915629   0.00324        0.003923266   -0.0046021365   0.0032347625   0.00391559     2.5419134      19.49479       17.536336     -29.709457      2.5862714      4.1937046      57.364921      58.829268      59.957805      2              202341.78      1.1692758      9718.2652      9360.1759     -4652.4563      652.03728      2043.6615      12137.185     -18556.002     -4375.1562      16.2         
     16400   296.543        10822.176      17695.562      28517.739     -20.251372      219.79074     -103.79279     -176.75207      0.0032746325  -0.0047941344   0.00328        0.0033822012  -0.0048056631   0.0032746325   0.0033764945  -14.076324     -1.9224033      0.50154394    -4.1747414     -9.7290936      6.4250403      57.353247      58.831614      59.92549       2              202199.63      1.1700978      9786.7467      9494.4358     -4696.9165      653.77438      2042.9103      12100.561     -18559.335     -4415.8638      16.4         
     16600   294.30283      10580.924      17561.885      28142.809     -306.67046     -846.91821      168.36534     -241.45851      0.003314501   -0.0041065708   0.00332        0.0031867839  -0.0041150259   0.003314501    0.0031817169   8.9750778      1.9200752      2.3594389     -20.64006      -0.56986377     10.43818       57.392871      58.833959      59.913819      2              202307.99      1.1694711      9821.1023      9255.0687     -4761.6202      618.69659      2112.0937      12092.046     -18556.464     -4352.3235      16.6         
     16800   297.6649       10742.817      17762.509      28505.325     -449.67087     -675.4686       376.09278     -1049.6368      0.0033543678  -0.0043462656   0.00336        0.0031596375  -0.004355738    0.0033543678   0.0031546564   0.73359848     0.0015564525  -6.3961778     -9.322888      -10.640086     -4.7931165      57.379057      58.836305      59.912198      2              202261.89      1.1697377      9765.2619      9499.8629     -4788.4041      650.43902      2044.7687      12124.918     -18554.03      -4384.3431      16.8         
     17000   299.51374      10650.316      17872.835      28523.15       1035.1028      1253.8558      617.589        1233.8637      0.0033942331  -0.0044517277   0.0034         0.0034088102  -0.0044616661   0.0033942331   0.0034030134  -1.3926803      9.7237812     -9.661862      -11.58122       3.5328736      19.761922      57.37298       58.83865       59.92708       2              202298.76      1.1695245      9852.6688      9387.2872     -4922.4252      623.47919      2162.3241      12100.413     -18553.431     -4290.6944      17           
     17200   295.07296      10659.034      17607.84       28266.875      4.9739658     -233.43314      10.48707       237.86797      0.0034340967  -0.0042463853   0.00344        0.0037528374  -0.0042554268   0.0034340967   0.0037458131  -2.236938       20.917291      14.702805     -1.947745      -3.3819706      3.9669499      57.384813      58.840996      59.947626      2              202417.93      1.168836       9851.073       9158.1715     -4534.7023      666.79262      2013.8816      12056.746     -18552.929     -4482.3009      17.2         
     17400   298.11734      10695.585      17789.507      28485.093     -36.979173     -277.21493     -410.89707      577.17448      0.0034739588  -0.0035014385   0.00348        0.0026545665  -0.0035075829   0.0034739588   0.0026510494  -7.1633371      12.357311     -1.1428136     -0.62134344     3.8696716      19.602209      57.427744      58.843342      59.882034      2              202355.79      1.1691949      9952.1696      9250.4574     -4788.1058      645.85374      2073.8224      12118.248     -18556.86      -4364.7894      17.4         
     17600   297.38234      10816.431      17745.648      28562.079      0.6006208      186.74883      492.22555     -677.17251      0.0035138193  -0.0021405711   0.00352        0.0029019504  -0.0021428653   0.0035138193   0.0028977479  -7.3124504      17.323398     -11.766198     -16.599673     -10.281546     -2.0415036      57.50617       58.845687      59.896808      2              202690.21      1.1672658      9908.9635      9297.4262     -4737.8199      656.97044      2097.7626      12151.664     -18558.536     -4309.1089      17.6         
     17800   295.92324      10645.837      17658.579      28304.416     -376.0178       763.31584     -1640.5237     -250.84553      0.0035536782  -0.00082194223  0.00356        0.0018882627  -0.00082228021  0.0035536782   0.0018864822   10.488231      35.754368      18.135395     -27.164138     -3.8296655     -11.856233      57.582162      58.848033      59.836267      2              202760.99      1.1668583      9730.3114      9233.0479     -4621.6364      657.4864       2039.7275      12161.838     -18554.938     -4353.3719      17.8         
     18000   296.6926       10683.613      17704.489      28388.103     -487.3901      -495.51768     -894.82547     -71.827152      0.0035935355  -0.00067871857  0.0036         1.5661049e-05 -0.000678949    0.0035935355   1.5660927e-05  20.58427       29.325606     -10.548067     -11.971023      3.9892501     -10.989297      57.590416      58.850378      59.724429      2              202419.1       1.1688292      9694.3177      9434.1797     -4649.915       626.40441      2019.3634      12110.798     -18551.535     -4421.3735      18           
     18200   299.91653      10766.082      17896.87       28662.952      570.04916      297.74255      782.70053      629.70441      0.0036333912  -0.0019766629   0.00364       -0.0011944371  -0.0019786191   0.0036333912  -0.001195151    5.7293386      13.396738     -22.994332     -16.368421      2.0413944      11.493575      57.515616      58.852724      59.652158      2              201919.61      1.1717205      9894.0568      9311.0193     -4766.8406      636.40116      2149.9074      12096.727     -18555.19      -4308.5551      18.2         
     18400   294.47958      10748.907      17572.432      28321.339     -667.42814     -83.702542     -390.28457     -1528.2973      0.0036732454  -0.0051857384   0.00368       -0.00046356405 -0.005199231    0.0036732454  -0.00046367153 -8.6525487     -0.21928342    -13.91713      -2.2555013     -2.0591368     -16.213747      57.330679      58.855069      59.695808      2              201425.66      1.1745939      9969.7597      9308.0003     -4718.2024      644.45901      2014.6554      12085.874     -18555.639     -4455.1098      18.4         
     18600   298.0088       10684.65       17783.03       28467.68       339.87243      384.29629      280.92785      354.39314      0.0037130979  -0.0063048698   0.00372        0.0022523039  -0.0063248295   0.0037130979   0.0022497713  -30.035144     -4.4792617     -1.4736198      5.2845394      4.8852211     -4.664383       57.266184      58.857415      59.858009      2              201753.79      1.1726836      9858.6519      9312.3516     -4781.2921      626.26939      2102.9126      12124.953     -18559.196     -4331.3308      18.6         
     18800   297.38418      10864.612      17745.757      28610.369     -67.043943     -348.49544      347.02681     -199.66319      0.0037529489  -0.0064556875   0.00376        0.0060503919  -0.0064766155   0.0037529489   0.0060321618   9.4305458     -22.635044     -6.8464836      3.3259703      16.236232      6.5361277      57.257492      58.859761      60.084844      2              202495.68      1.1683872      9742.2946      9496.1867     -4657.1834      636.02903      2083.4336      12119.524     -18555.672     -4352.7149      18.8         
     19000   296.76966      10559.46       17709.088      28268.548      100.33265      172.02048     -216.51523      345.49269      0.0037927982  -0.006894669    0.0038         0.007688895   -0.0069185471   0.0037927982   0.0076594861   2.4502812      26.650074      40.263972     -16.485431     -18.2112        7.446874       57.232194      58.862106      60.182701      2              202743.93      1.1669565      9663.1379      9195.0611     -4587.0976      653.82733      2053.7258      12134.659     -18553.853     -4365.4684      19           
     19200   298.20279      10789.524      17794.606      28584.13       793.49704      1313.8288      206.68929      859.97301      0.003832646   -0.0071598866   0.00384        0.0078302921  -0.0071856416   0.003832646    0.0077997945  -13.800304     -0.021615108   -10.860968     -14.337184      15.105024      9.4193789      57.21691       58.864452      60.191146      2              202726.31      1.167058       9921.1222      9333.3908     -4867.42        662.33366      2188.5085      12106.131     -18554.542     -4259.9026      19.2         
     19400   299.72296      10661.441      17885.319      28546.76      -1180.553      -808.20123     -1578.3526     -1155.1051      0.0038724922  -0.0061506659   0.00388        0.0073309908  -0.0061696592   0.0038724922   0.0073042497  -7.9961696      43.574761      25.319216     -7.5133027     -2.2343548     -2.3972588      57.275071      58.866797      60.161326      2              202839.92      1.1664043      9691.7594      9279.2423     -4522.455       651.58699      2027.4243      12093.452     -18559.569     -4438.6923      19.4         
     19600   294.72144      10534.899      17586.864      28121.763     -205.1621      -366.72183     -30.665595     -218.09888      0.0039123368  -0.0049713998   0.00392        0.0040950398  -0.0049837983   0.0039123368   0.004086678    1.7791836      0.07212383     29.387276     -13.569591      8.4238215      16.119712      57.343031      58.869143      59.968064      2              202436.3       1.1687299      9849.3514      9216.7253     -4790.6965      644.60243      2066.6486      12106.361     -18558.093     -4385.0838      19.6         
     19800   295.57447      10538.468      17637.767      28176.236      337.61726     -311.58589      682.10084      642.33682      0.0039521798  -0.0034592684   0.00396        0.0012589291  -0.0034652655   0.0039521798   0.0012581373  -9.7361216      17.501226     -29.283465      5.1218686     -1.5596696      12.809144      57.430175      58.871488      59.798681      2              202179.33      1.1702153      9825.2207      9305.9741     -4850.3208      644.72761      2062.496       12108.554     -18558.183     -4387.1331      19.8         
     20000   298.22947      10732.599      17796.198      28528.797      557.65903      1159.1903      164.51058      349.27622      0.0039920213  -0.0012215853   0.004          0.0012405612  -0.0012223321   0.0039920213   0.0012397924  -17.93524       29.984437     -11.339958     -16.008702     -6.5900042      13.462861      57.559131      58.873834      59.797584      2              202637.67      1.1675685      9866.5983      9413.1827     -4857.3409      644.15755      2115.4982      12111.294     -18560.791     -4333.9986      20           
     20200   296.74347      10898.314      17707.525      28605.839     -801.96953     -1817.8226     -496.23242     -91.85356       0.0040318611  -0.00026319855  0.00404        0.0017574239  -0.00026323319  0.0040318611   0.0017558815   23.501603      20.725909     -10.624177     -6.8132455     -0.76725868    -8.7884333      57.614363      58.87618       59.828453      2              202944.91      1.1658009      9789.5184      9468.166      -4653.5178      648.69442      2043.7711      12159.343     -18557.661     -4354.5468      20.2         
     20400   297.87741      10523.221      17775.19       28298.411     -146.65905     -71.984258      31.632782     -399.62568      0.0040716994  -0.00058919377  0.00408        0.0034938484  -0.00058936741  0.0040716994   0.0034877591   20.532305     -0.71082519    -12.238559     -8.5220485      11.365295     -10.235703      57.595576      58.878525      59.932158      2              203238.49      1.1641169      9765.3352      9256.8625     -4806.5051      643.93874      2032.9425      12188.159     -18557.512     -4336.4101      20.4         
     20600   297.33169      10808.924      17742.625      28551.55      -97.552342      338.0965      -1046.1464      415.39292      0.004111536   -0.0026655617   0.00412        0.0049163108  -0.0026691206   0.004111536    0.0049042652   7.7107752      34.295423      15.238178     -4.1766322     -7.2365579     -0.82432679     57.475915      58.880871      60.017113      2              203111.83      1.1648428      9837.5633      9323.6136     -4645.6777      635.14543      2093.4866      12119.228     -18554.435     -4341.7204      20.6         
     20800   298.35788      10790.07       17803.861      28593.931      396.22376      49.739036      750.18449      388.74776      0.0041513711  -0.0049420494   0.00416        0.0045926639  -0.0049543017   0.0041513711   0.0045821498  -6.7205091      21.446565      4.9302218     -31.053959     -20.866869      13.607523      57.344723      58.883216      59.997783      2              202591.02      1.1678373      9777.019       9345.2591     -4648.2791      629.80414      2124.4747      12121.485     -18559.693     -4313.733       20.8         
     21000   297.695        10510.444      17764.305      28274.749     -280.10812     -476.94368      7.6934748     -371.07415      0.0041912046  -0.0057919651   0.0042         0.0035825862  -0.0058088036   0.0041912046   0.0035761841  -5.2955186      3.0576012      10.359325     -7.8734049      10.728156     -12.622871      57.295742      58.885562      59.937458      2              202222.51      1.1699655      9819.8052      9215.9995     -4772.8398      640.66215      2058.8973      12107.289     -18559.37      -4393.183       21           
     21200   297.77738      10928.713      17769.221      28697.933      628.06732      555.40465      600.16919      728.62813      0.0042310365  -0.0063027216   0.00424        0.0028710807  -0.0063226676   0.0042310365   0.002866967   -5.4423061      3.5741387     -10.635959     -19.918976     -1.6722472      19.078749      57.266308      58.887907      59.894964      2              201983.37      1.1713507      9945.7664      9360.6227     -4721.804       652.49176      2093.707       12151.068     -18553.139     -4308.3642      21.2         
     21400   295.81305      10858.934      17652.004      28510.938     -410.54692      298.35038     -221.94041     -1308.0507      0.0042708669  -0.0052848009   0.00428        0.0030136025  -0.0052988149   0.0042708669   0.0030090707  -9.8579814      26.501        -4.7203391     -14.479335      11.125555      17.829696      57.32497       58.890253      59.903476      2              202227.07      1.1699391      9923.4477      9450.9502     -4769.6723      636.6614       2006.9863      12164.44      -18553.879     -4382.4527      21.4         
     21600   297.63256      10623.962      17760.579      28384.541     -280.72644     -593.66211     -304.85245      56.335229      0.0043106956  -0.0040647533   0.00432        0.0033073063  -0.0040730369   0.0043106956   0.0033018492  -12.161952     -23.408527     -14.540671     -33.911071     -5.9035559      11.328463      57.395281      58.892599      59.921017      2              202542.46      1.1681173      9851.3194      9274.4232     -4733.1327      636.65531      2068.506       12083.028     -18556.838     -4405.3034      21.6         
     21800   299.52236      10898.028      17873.349      28771.376      499.60372      664.67378      96.541448      737.59595      0.0043505227  -0.0024867975   0.00436        0.0045805256  -0.0024898947   0.0043505227   0.0045700669   11.183401     -3.920832       4.0635422     -26.920989     -3.930925      -10.770423      57.486218      58.894944      59.997059      2              203128.9       1.1647449      9853.078       9388.1012     -4818.622       652.43292      2203.7705      12177.547     -18558.28      -4176.9626      21.8         
     22000   297.96958      10790.717      17780.69       28571.407      386.87522     -310.45659      394.97255      1076.1097      0.0043903483  -0.00076832934  0.0044         0.0047153256  -0.00076862466  0.0043903483   0.0047042432  -5.4659861      16.849574      11.386764      1.2509867     -5.8636803      7.5184418      57.585252      58.89729       60.005109      2              203514.24      1.1625395      9884.56        9315.2821     -4779.9492      646.7332       2160.0123      12121.476     -18557.397     -4275.909       22           
     22200   297.70008      10667.557      17764.608      28432.165     -1042.1533     -975.36712     -1908.2931     -242.79959      0.0044301723  -0.0012778288   0.00444        0.0041556331  -0.0012786459   0.0044301723   0.0041470223   39.314105      27.774328      13.822434     -4.9910616      13.287059      12.136193      57.55589       58.899635      59.971682      2              203305.26      1.1637346      9871.5507      9269.7295     -4778.3345      644.62796      2127.6717      12089.901     -18557.589     -4340.0163      22.2         
     22400   298.77505      10387.906      17828.755      28216.66       249.8543       1102.3929      364.30428     -717.13426      0.0044699947  -0.0038426813   0.00448        0.0027368073  -0.0038500833   0.0044699947   0.002733069   -13.415368      17.661981     -5.2503942     -8.5183234      6.1224126      12.47459       57.408079      58.901981      59.886945      2              202504.68      1.1683352      9648.9329      9302.6457     -4855.5038      647.73475      2077.6977      12126.343     -18559.945     -4355.904       22.4         
     22600   298.72168      10702.211      17825.57       28527.781      389.60948     -186.01289      810.87184      543.96949      0.0045098155  -0.0052861454   0.00452        0.0021378036  -0.0053001665   0.0045098155   0.0021355218  -5.2538609      12.513409     -6.4553998     -13.03189      -23.684129     -10.910546      57.324892      58.904326      59.851171      2              202098.5       1.1706834      9799.9968      9314.6163     -4817.5885      643.4571       2150.7932      12168.965     -18558.029     -4238.2711      22.6         
     22800   299.3307       10716.134      17861.912      28578.046      195.6185       921.68646     -481.48237      146.65142      0.0045496347  -0.0057239729   0.00456        0.0024808305  -0.0057404176   0.0045496347   0.0024777583   2.6139956      10.885412     -10.873152     -6.4680178      5.0202435     -9.2840086      57.299661      58.906672      59.871657      2              202086.74      1.1707515      9883.7227      9303.2119     -4736.821       652.3894       2026.1137      12148.34      -18560.823     -4386.3692      22.8         
     23000   294.82104      10618.433      17592.808      28211.241      710.09253      1085.8051      190.95683      853.51563      0.0045894523  -0.0062062629   0.0046         0.003270061   -0.0062256018   0.0045894523   0.003264726   -6.1711848      32.315499      7.9331669     -4.6453665      15.316377     -1.4521943      57.271867      58.909018      59.918793      2              202155.78      1.1703516      9783.144       9292.0428     -4762.3876      641.89605      2122.8022      12099.021     -18558.086     -4336.2619      23           
     23200   297.62241      10642.609      17759.973      28402.582     -1223.9623     -944.42563     -1623.4179     -1104.0432      0.0046292684  -0.0053971922   0.00464        0.0036707159  -0.0054118096   0.0046292684   0.0036639952  -3.5038722      8.4767198      0.31511954     1.5859953     -18.56601       6.0553371      57.318493      58.911363      59.942721      2              202409.22      1.1688863      9766.5113      9270.3482     -4583.0505      654.52429      1965.1193      12128.921     -18559.765     -4465.7246      23.2         
     23400   297.38731      10831.38       17745.944      28577.325      642.12724      780.07063      906.23215      240.07894      0.0046690828  -0.0048166276   0.00468        0.0033482117  -0.0048282649   0.0046690828   0.0033426189  -4.9369085      9.2172245      7.1143454     -19.619048      4.1078355      3.6118899      57.351951      58.913709      59.92346       2              202470.35      1.1685333      9932.4431      9428.6448     -4818.9878      636.89807      2059.7651      12149.959     -18557.342     -4347.6178      23.4         
     23600   296.20297      10806.102      17675.271      28481.373     -1.282736       880.91675     -1146.1596      261.39461      0.0047088957  -0.0033150857   0.00472        0.0016186601  -0.0033205928   0.0047088957   0.0016173515  -7.8524323      14.665415      21.489189     -15.564012     -6.1588484     -5.1448726      57.438484      58.916054      59.820166      2              202434.36      1.1687411      9789.3825      9295.3559     -4609.9579      665.88145      2116.4044      12101.274     -18552.238     -4334.5598      23.6         
     23800   296.3802       10650.416      17685.847      28336.264     -252.51737     -1335.6013     -152.75165      730.80083      0.004748707   -0.002587873    0.00476       -0.001610882   -0.0025912274   0.004748707   -0.0016121809   30.7676        6.9336983     -11.869233     -6.7127096     -4.6524816      11.962761      57.480393      58.9184        59.627286      2              201936.91      1.1716201      9913.7216      9339.3283     -4801.9771      647.64154      2019.7218      12088.738     -18556.758     -4448.298       23.8         
     24000   298.20641      10882.795      17794.823      28677.618      495.472        636.95913      86.058588      763.39829      0.0047885167  -0.0030194023   0.0048        -0.0042984606  -0.0030239699   0.0047885167  -0.0043077255  -5.791285       5.0011454     -19.027951     -9.5334852      4.3130463      9.9950708      57.455524      58.920745      59.466774      2              201314.2       1.1752443      9930.1598      9268.4479     -4671.3072      645.29806      2097.675       12168.496     -18555.974     -4289.8035      24           
     24200   295.02626      10855.873      17605.054      28460.927     -671.30616     -223.93591     -803.36063     -986.62193      0.0048283249  -0.0025738222   0.00484       -0.003917006   -0.0025771402   0.0048283249  -0.0039246976   1.1895943      0.47741074    -33.742747      5.8649126      15.536913      3.210184       57.481202      58.923091      59.489556      2              201489.35      1.1742226      9812.494       9427.4503     -4628.801       649.12384      2017.836       12135.941     -18558.171     -4404.3938      24.2         
     24400   297.93926      10673.631      17778.881      28452.512     -259.91212     -701.22833     -433.4658       354.95779      0.0048681314  -0.0019498891   0.00488       -0.0019866679  -0.0019517926   0.0048681314  -0.001988644   -1.1074819     -1.8492743     -7.3329946     -1.932444       24.389508     -13.311525      57.517159      58.925437      59.604843      2              202014.15      1.1711722      9729.9299      9391.0494     -4674.6885      662.60547      2005.4317      12116.656     -18557.353     -4435.2651      24.4         
     24600   301.20419      10749.518      17973.708      28723.226      231.84036      538.99915      838.49316     -681.97122      0.0049079364  -0.0031769427   0.00492        0.001389444   -0.0031819999   0.0049079364   0.0013884797   10.418901      14.73744      -0.90854788     2.7319355     -4.2406546      11.445037      57.446445      58.927782      59.806476      2              202456.38      1.168614       9925.5433      9273.4999     -4757.862       631.63858      2079.87        12153.937     -18557.109     -4323.3017      24.6         
     24800   298.63027      10943.558      17820.115      28763.674     -304.80376     -563.90353     -212.0749      -138.43285      0.0049477397  -0.0042379513   0.00496        0.0037824902  -0.0042469569   0.0049477397   0.0037753546  -10.800763     -5.7919314      15.884179     -24.657148      3.0565409      1.8126406      57.385299      58.930128      59.949397      2              202732.26      1.1670237      9768.625       9460.6362     -4579.9454      661.20591      2022.5498      12168.226     -18557.74      -4366.9634      24.8         
     25000   296.19185      10835.812      17674.608      28510.419     -1006.5163     -1268.8996     -1122.1904     -628.45871      0.0049875415  -0.0049393579   0.005          0.0052448522  -0.0049515969   0.0049875415   0.0052311459   7.9811186      18.359608      10.772683     -6.2177911     -1.4420605      1.0203556      57.344878      58.932473      60.036734      2              202892.67      1.166101       9795.6802      9339.0099     -4611.3126      647.58281      2072.4605      12152.284     -18559.894     -4335.1488      25           
     25200   294.50362      10784.902      17573.866      28358.769      318.52612      600.79315     -407.59048      762.37568      0.0050273417  -0.0055070834   0.00504        0.0051472724  -0.0055223033   0.0050273417   0.0051340705  -6.3714109      14.6845        21.47719      -17.364263      0.69966767     13.722098      57.31216       58.934819      60.030907      2              202765.3       1.1668336      9757.2336      9419.485      -4748.6933      649.36842      2129.4765      12139.723     -18561.691     -4292.4912      25.2         
     25400   300.64505      10744.35       17940.343      28684.693     -280.22814      339.22872     -538.48679     -641.42636      0.0050671403  -0.0053043597   0.00508        0.0037115994  -0.0053184778   0.0050671403   0.0037047284  -8.4796033      16.576954      4.7953096      8.4662158      2.9100264      10.060985      57.323843      58.937164      59.945163      2              202525.02      1.1682179      9849.6178      9410.438      -4778.4034      645.58737      2069.0593      12103.273     -18555.222     -4382.8895      25.4         
     25600   297.86861      10617.343      17774.665      28392.007      471.62983      797.91453      398.95179      218.02318      0.0051069374  -0.004618061    0.00512        0.0023741816  -0.0046287572   0.0051069374   0.0023713677   8.5232783      3.7078951     -15.923263     -14.531604     -6.7349288      4.1414068      57.363394      58.93951       59.865288      2              202402.76      1.1689235      9896.2069      9245.7471     -4825.6952      642.02003      2104.8628      12112.961     -18558.76      -4340.9362      25.6         
     25800   299.09012      10616.503      17847.556      28464.058     -1038.5233     -935.97964     -1139.4923     -1040.098       0.0051467328  -0.0033216093   0.00516        0.0021197779  -0.0033271381   0.0051467328   0.0021175343  -12.303869     -17.829869      4.4413611     -14.378146      0.071371913    3.0564612      57.438108      58.941856      59.850094      2              202623.01      1.1676529      9700.4839      9233.0598     -4474.3652      637.04626      1983.2453      12094.537     -18557.505     -4479.7222      25.8         
     26000   299.44774      10785.416      17868.896      28654.312     -626.61319     -581.12241     -362.85006     -935.86709      0.0051865267  -0.0039628076   0.0052         0.00081489408 -0.0039706804   0.0051865267   0.00081456224  30.428657      11.118478      4.2853021     -17.850994      6.4524286      16.563667      57.401156      58.944201      59.772162      2              202237.03      1.1698814      9994.99        9509.9754     -4920.8311      617.63658      2018.3639      12124.464     -18559.183     -4416.3553      26           
     26200   299.79067      10793.952      17889.36       28683.312      585.85241      127.20333      294.3198       1336.0341      0.005226319   -0.0056897682   0.00524       -0.00121491    -0.0057060166   0.005226319   -0.0012156486  -30.195246      27.537878     -14.344942     -12.963867      0.93548746     1.6995424      57.301632      58.946547      59.650935      2              201484.95      1.1742483      9854.1479      9369.1626     -4746.8354      641.43964      2128.6783      12105.295     -18557.936     -4323.9629      26.2         
     26400   297.26229      10672.809      17738.484      28411.293     -902.60471     -447.45855     -887.13055     -1373.225       0.0052661097  -0.0042526159   0.00528       -0.00016034    -0.004261684    0.0052661097  -0.00016035286 -6.7238364      23.101747     -1.6516891     -27.717203      14.843975      5.8716137      57.384454      58.948892      59.713917      2              201997.25      1.1712701      9848.4323      9227.4478     -4662.4868      636.44561      2031.7677      12148.627     -18557.425     -4377.0303      26.4         
     26600   300.16771      10737.046      17911.858      28648.905     -315.15024     -559.3406       482.24878     -868.35889      0.0053058988  -0.0030482089   0.00532       -0.00057474105 -0.0030528642   0.0053058988  -0.00057490628  8.2252015      3.8062106      6.6046807      0.35147956     12.198624     -3.4397404      57.453864      58.951238      59.689168      2              202165.8       1.1702936      9773.155       9410.5141     -4695.0494      646.90075      2048.1996      12110.145     -18556.819     -4398.4742      26.6         
     26800   298.55694      10770.497      17815.74       28586.237      726.46989      1248.6073      433.25681      497.54556      0.0053456863  -0.0030696063   0.00536       -0.0012161597  -0.0030743272   0.0053456863  -0.0012168998   10.021341      45.369961     -19.477556     -16.05976       9.1345414     -10.825104      57.452631      58.953583      59.65086       2              202039.76      1.1710238      9850.1732      9266.6509     -4625.2751      646.93326      2118.1648      12073.453     -18559.603     -4367.985       26.8         
     27000   298.40122      10589.026      17806.447      28395.473     -34.978892     -240.5887       64.202716      71.449306      0.0053854723  -0.0015181968   0.0054         0.00019605719 -0.0015193505   0.0053854723   0.00019603798 -19.398529      49.313382     -5.4439654     -27.706544      3.0350647     -6.7379212      57.542038      58.955929      59.735203      2              202648.35      1.167507       9760.2375      9360.0113     -4832.084       644.42967      2088.2981      12125.34      -18557.207     -4343.5683      27           
     27200   301.43237      10667.385      17987.324      28654.709     -91.794165      51.535217     -393.31794      66.400223      0.0054252566  -0.0001584174   0.00544        0.0011056249  -0.00015842995  0.0054252566   0.0011050141   24.498601      30.638868      36.115812     -25.715733     -2.5833109      22.141554      57.620401      58.958275      59.789525      2              203116.94      1.1648135      9806.4544      9358.4894     -4813.3148      635.28527      2085.0639      12152.907     -18557.5       -4319.5296      27.2         
     27400   298.46473      10524.402      17810.237      28334.639     -279.58875      363.13481      218.14812     -1420.0492      0.0054650394  -0.00044716716  0.00548       -0.00081646237 -0.00044726717  0.0054650394  -0.00081679585  7.2334851      21.972629      10.629314     -13.276662      0.48320021     10.958102      57.603761      58.96062       59.674732      2              202676.48      1.1673449      9796.4998      9260.9331     -4810.9998      628.77589      2032.0068      12173.777     -18556.591     -4350.8066      27.4         
     27600   297.30317      10714.325      17740.923      28455.248     -187.09286      252.47575     -1638.3147      824.5604       0.0055048206  -0.0010500954   0.00552       -0.003106391   -0.0010506471   0.0055048206  -0.0031112258  -8.6396169     -5.5750148     -12.148637     -6.536649       3.8101211      9.9184654      57.569014      58.962966      59.537969      2              202098.05      1.170686       9777.0639      9263.1131     -4599.7308      647.73868      2030.1685      12157.194     -18561.222     -4373.8599      27.6         
[...]
    744000   299.30047      11215.268      17860.108      29075.376      407.8446       1401.2177     -464.57574      286.89186      0.13871792    -0.032544821    0.1488        -0.04654404    -0.033086182    0.13871792    -0.047662043   -3.162667       143.11256     -13.503663     -15.935543      24.22212       14.882262      55.753988      67.364801      56.943721      2              213872.43      1.1062359      9764.0577      9364.8451     -4804.1447      647.9552       2653.9582      12137.781     -18549.185     -3757.4458      744          
    744200   298.79904      11164.778      17830.186      28994.964     -1793.6689     -1778.946      -3456.7807     -145.28002      0.13875274    -0.030792977    0.14884       -0.045361437   -0.031277044    0.13875274    -0.046422478   -14.789864      146.62606     -17.784309     -10.846248     -18.528369     -5.4125612      55.854946      67.367147      57.01435       2              214532.93      1.10283        9753.9999      9314.5299     -4710.0368      616.84417      2590.7635      12150.07      -18551.393     -3810.5598      744.2        
    744400   297.27824      11365.949      17739.436      29105.384     -448.85729     -956.51778     -567.9538       177.89972      0.13878755    -0.031190879    0.14888       -0.044228535   -0.031687672    0.13878755    -0.045236447    16.34123       183.17222      0.902244      -16.014581      6.894243      -1.1334289      55.832015      67.369492      57.082011      2              214706.82      1.1019368      9854.0589      9293.9133     -4693.5994      648.17845      2679.8469      12130.725     -18547.175     -3736.6027      744.4        
    744600   298.48614      11302.893      17811.514      29114.407     -685.40357     -528.24565     -1173.0326     -354.93241      0.13882237    -0.031724792    0.14892       -0.043607717   -0.032238926    0.13882237    -0.044587112    17.784362      147.65239      12.767687      2.0977446      11.191831     -8.5395893      55.801246      67.371838      57.119088      2              214735.36      1.1017904      9892.1799      9364.9986     -4820.6877      636.88142      2623.9159      12154.743     -18549.139     -3770.4796      744.6        
    744800   297.98479      11279.654      17781.598      29061.252     -1013.1972     -281.98663     -2247.5384     -510.06654      0.13885719    -0.032683204    0.14896       -0.042756604   -0.03322923     0.13885719    -0.043697587   -6.695259       168.8946      -12.999442     -37.38658      -4.7232019     -2.45134        55.746013      67.374184      57.16992       2              214721.19      1.1018631      9742.1786      9290.9193     -4595.1894      635.93747      2643.7733      12114.622     -18552.587     -3794.1918      744.8        
    745000   298.24892      11200.542      17797.359      28997.901     -1054.1365      86.340261     -1631.3441     -1617.4057      0.138892      -0.033168917    0.149         -0.041621616   -0.03373148     0.138892      -0.042512606   -10.065522      168.48742     -5.0959062     -17.823768      4.3930754     -5.2639245      55.718021      67.376529      57.237705      2              214875.32      1.1010727      9661.8205      9326.4144     -4625.483       642.39675      2615.8635      12131.708     -18552.177     -3804.6062      745          
    745200   299.57964      11351.006      17876.767      29227.773     -134.0228      -793.78486     -863.77097      1255.4874      0.13892681    -0.033804469    0.14904       -0.040555542   -0.034389052    0.13892681    -0.041400851    24.189117      153.47974      6.0776641     -4.8212459     -4.1663746     -11.996016      55.681395      67.378875      57.301375      2              214980.42      1.1005344      9880.5197      9304.3463     -4805.6931      651.99196      2746.6081      12125.441     -18552.208     -3680.159       745.2        
    745400   297.82394      11434.514      17771.999      29206.514     -1170.5356     -464.61533     -2401.8755     -645.11595      0.13896162    -0.034989494    0.14908       -0.038534615   -0.03561629     0.13896162    -0.039296716   -1.7058704      155.30957     -10.688533     -13.374769     -5.5656138     -3.3455406      55.613102      67.38122       57.422072      2              215176.51      1.0995315      9732.1394      9429.3261     -4643.3336      631.52365      2685.881       12151.833     -18552.855     -3715.141       745.4        
    745600   296.48028      11335.48       17691.819      29027.299     -366.70039      535.16943     -1644.884       9.613399       0.13899643    -0.036389466    0.14912       -0.038658863   -0.037068076    0.13899643    -0.039425951   -8.6105558      165.01459      27.053768     -28.272804     -14.331172      5.8456273      55.532423      67.383566      57.414651      2              214844.06      1.101233       9887.1262      9347.5209     -4774.7914      635.22338      2644.671       12146.994     -18551.264     -3759.5991      745.6        
    745800   298.43733      11429.792      17808.602      29238.394     -447.08502      321.67        -747.43776     -915.48728      0.13903124    -0.036756596    0.14916       -0.040729296   -0.037449143    0.13903124    -0.041581967   -6.0479823      165.26441      13.605832     -26.405556      7.843187       9.9332352      55.511265      67.385911      57.290998      2              214307.13      1.103992       9924.1226      9385.7317     -4769.0719      643.15846      2696.744       12097.375     -18548.269     -3754.1492      745.8        
    746000   298.52919      11250.368      17814.084      29064.451      295.37958      1521.6307     -1120.5521      485.06015      0.13906605    -0.036151518    0.1492        -0.042495379   -0.036821173    0.13906605    -0.043424732   -7.2047405      145.43151     -0.92047025    -24.511952      0.097403294    7.6521619      55.546136      67.388257      57.185521      2              214054.4       1.1052955      9801.8466      9279.1926     -4722.9793      632.8805       2676.1724      12128.389     -18545.134     -3740.5726      746          
    746200   298.16576      11163.163      17792.397      28955.56      -932.05786     -637.83003     -2299.5788      141.23526      0.13910085    -0.034961385    0.14924       -0.044022555   -0.035587163    0.13910085    -0.04502096    -11.04986       177.9366      -9.472793      -15.22049       8.4252242     -20.573933      55.614722      67.390603      57.094313      2              213984.33      1.1056574      9787.8206      9188.1332     -4609.8308      632.16805      2681.6146      12029.579     -18546.322     -3835.128       746.2        
    746400   298.36144      11427.923      17804.073      29231.996     -317.65359      551.66287     -1445.0492     -59.574467      0.13913566    -0.034789999    0.14928       -0.044175621   -0.035409584    0.13913566    -0.045181086    6.067277       160.32893     -11.309641     -17.715819      6.3478128      3.7348385      55.624599      67.392948      57.085171      2              213995.51      1.1055996      9747.4332      9355.4218     -4576.0446      646.05159      2693.8257      12111.272     -18550.037     -3744.9393      746.4        
    746600   302.07911      11495.247      18025.917      29521.165     -214.69709      63.78674      -650.926       -56.952012      0.13917046    -0.034042615    0.14932       -0.042582627   -0.03463556     0.13917046    -0.043515857   -1.9311248      177.76212     -8.3575729      0.96466108     2.791691      -0.10864395     55.667671      67.395294      57.18031       2              214525.6       1.1028677      9815.2529      9393.8645     -4685.9065      639.8306       2716.1072      12168.756     -18552.657     -3667.7939      746.6        
    746800   299.43308      11272.63       17868.021      29140.651     -1740.2116     -836.98622     -2635.7198     -1747.9287      0.13920527    -0.033078778    0.14936       -0.042527515   -0.033638253    0.13920527    -0.043458295   -4.2281285      210.27542      29.465515      7.8984105     -4.4308362     -12.76885       55.723216      67.397639      57.183602      2              214759.49      1.1016666      9720.1727      9360.5037     -4616.4321      648.96282      2603.0844      12106.35      -18550.011     -3840.577       746.8        
    747000   296.74349      11361.686      17707.526      29069.212     -1433.2141     -1428.1179     -2201.9876     -669.53672      0.13924007    -0.032618429    0.1494        -0.04375615    -0.033162269    0.13924007    -0.044742325    3.1942853      169.58923     -6.3061729     -12.755428      10.250173     -7.0552741      55.749746      67.399985      57.110223      2              214593.49      1.1025188      9838.4382      9297.8489     -4611.1007      656.29001      2581.7891      12150.691     -18552.271     -3819.7903      747          
    747200   298.19685      11570.467      17794.252      29364.719      1.448647      -289.64893     -153.78697      447.78184      0.13927487    -0.032447075    0.14944       -0.045133982   -0.032985153    0.13927487    -0.046184243   -1.9580684      153.7582       1.0944779      4.7958959     -2.3177274      1.4474141      55.759621      67.40233       57.027934      2              214329.7       1.1038757      9887.1988      9387.8232     -4667.5279      649.51886      2716.3658      12148.501     -18551.413     -3686.5462      747.2        
    747400   296.49272      11339.772      17692.562      29032.334     -761.86273      667.88265     -1908.445      -1045.0258      0.13930967    -0.031981877    0.14948       -0.047014293   -0.03250447     0.13930967    -0.048155374    11.701145      151.11024      20.967159     -22.784294     -1.2793849      6.2830806      55.78643       67.404676      56.915636      2              214017.94      1.1054837      9769.264       9380.5563     -4689.4159      659.39662      2600.0338      12174.041     -18554.104     -3780.0288      747.4        
    747600   301.11714      11143.409      17968.514      29111.923     -23.021006      173.29974     -769.04841      526.68566      0.13934446    -0.032185921    0.14952       -0.0497542     -0.032715277    0.13934446    -0.051034591   -6.1217722      183.70913      2.7400602     -17.577046     -8.467364       13.585925      55.774671      67.407022      56.751999      2              213365.07      1.1088664      9779.7917      9275.739      -4738.1736      642.52328      2582.8965      12153.49      -18552.858     -3816.4713      747.6        
    747800   299.1348       11445.638      17850.222      29295.86      -630.42823      599.14719     -2174.6071     -315.82476      0.13937926    -0.030871093    0.14956       -0.050358576   -0.031357645    0.13937926    -0.051670814   -16.558018      150.884       -23.435909     -9.5171777     -10.89343       1.8441647      55.850444      67.409367      56.715903      2              213526.48      1.1080282      9897.4667      9387.3368     -4702.8665      651.99417      2617.4872      12145.46      -18551.24      -3788.2931      747.8        
    748000   294.68341      11308.358      17584.595      28892.953      182.91265      1589.2745     -1100.1453      59.608832      0.13941406    -0.030712506    0.1496        -0.049191533   -0.031194019    0.13941406    -0.050442639    7.5258188      158.61513     -16.324345     -14.930831     -3.1223153      2.6676         55.859583      67.411713      56.785603      2              213831.31      1.1064486      9851.1085      9311.6626     -4801.357       655.5233       2658.2142      12183.911     -18550.705     -3708.5791      748          
    748200   298.05358      11388.777      17785.702      29174.479      29.604267      486.24148     -898.81611      501.38743      0.13944885    -0.030077216    0.14964       -0.048131122   -0.030538815    0.13944885    -0.049327987   -16.778569      140.38459     -1.9071347     -7.8407794      0.64555559     9.749097       55.896195      67.414058      56.848935      2              214217.55      1.1044536      9811.9173      9291.5927     -4679.949       665.99472      2682.2415      12167.431     -18550.452     -3700.7787      748.2        
    748400   297.63759      11428.255      17760.879      29189.134     -1209.2796     -1561.8608     -1481.7149     -584.26301      0.13948364    -0.029985395    0.14968       -0.046947501   -0.030444151    0.13948364    -0.048085289    16.768441      182.41705      7.2662382     -7.3176851     -9.2239105      2.4103513      55.901486      67.416404      56.919625      2              214511.69      1.1029392      9693.7198      9556.4165     -4677.6451      638.4103       2687.9654      12076.941     -18547.553     -3782.6462      748.4        
    748600   294.31361      11160.373      17562.528      28722.901     -1445.502      -838.97462     -2454.5073     -1043.0241      0.13951843    -0.030419131    0.14972       -0.046901651   -0.030891395    0.13951843    -0.048037182    4.3337938      138.64395      1.4634115     -11.280039      10.081537      8.5151794      55.87649       67.418749      56.922363      2              214433.55      1.1033411      9656.5578      9258.8137     -4573.7026      663.39119      2582.7096      12123.143     -18550.539     -3844.6866      748.6        
    748800   298.19222      11298.037      17793.975      29092.012     -947.63062     -590.89454     -2443.4081      191.41078      0.13955322    -0.032229951    0.14976       -0.047188652   -0.032760773    0.13955322    -0.048338351    13.107323      199.16013     -3.9928464     -16.693025      8.2528569     -10.510143      55.772134      67.421095      56.905222      2              213976.06      1.1057001      9777.5484      9387.2834     -4686.8118      647.04704      2653.5209      12075.202     -18555.753     -3827.03        748.8        
    749000   299.44167      11284.622      17868.534      29153.156      300.99964      1947.1132     -1180.9958      136.88152      0.13958801    -0.034208361    0.1498        -0.046475412   -0.034807162    0.13958801    -0.047590068   -4.6507599      174.76455     -4.7323327     -23.698015      6.9819552     -7.5153194      55.658119      67.423441      56.94782       2              213705.91      1.1070979      9775.5076      9362.5085     -4749.3608      652.15428      2735.7578      12060.694     -18552.639     -3756.1871      749          
    749200   295.89662      11182.954      17656.991      28839.945     -684.35686     -544.16306     -784.20594     -724.70159      0.1396228     -0.033848897    0.14984       -0.044917434   -0.034435035    0.1396228     -0.045957486   -19.952335      148.74461      3.5930553     -16.960323      10.926906     -3.0215732      55.678835      67.425786      57.040867      2              214142.21      1.1048422      9900.8306      9244.0866     -4778.5857      638.97452      2612.5036      12115.994     -18550.85      -3822.3522      749.2        
    749400   301.7001       11249.14       18003.301      29252.441     -589.8641       52.609157     -2149.9416      327.74012      0.13965759    -0.033335324    0.14988       -0.044818092   -0.033903611    0.13965759    -0.045853477    7.1887254      180.06812      3.4810613     -6.6876182      3.9467498      6.791509       55.708431      67.428132      57.0468        2              214285.78      1.104102       9909.1053      9196.2172     -4727.4722      648.38941      2625.8155      12153.813     -18556.728     -3777.0996      749.4        
    749600   296.5172       11432.217      17694.022      29126.239     -898.92904     -763.18081     -1664.1652     -269.44108      0.13969237    -0.03350555     0.14992       -0.044712701   -0.034079722    0.13969237    -0.045743147    5.3866455      156.87982     -3.9239722     -11.383413      9.3165171     -7.952735       55.698621      67.430477      57.053095      2              214279.14      1.1041362      9810.9205      9525.422      -4747.3879      652.86943      2583.2223      12164.555     -18557.384     -3809.6069      749.6        
    749800   296.31403      11196.472      17681.899      28878.37      -614.58537      504.2034      -1971.1967     -376.76279      0.13972716    -0.034213798    0.14996       -0.044872372   -0.034812792    0.13972716    -0.045910305    6.8356275      172.96531      13.150617     -18.044014      11.691828      3.2243695      55.657805      67.432823      57.043559      2              214093.77      1.1050922      9846.7278      9305.4347     -4792.0463      631.93007      2614.6408      12143.868     -18554.083     -3795.5746      749.8        
    750000   301.22344      11304.573      17974.857      29279.43      -396.14103      792.47943     -1610.883      -370.01954      0.13976194    -0.035027406    0.15          -0.045216684   -0.035655579    0.13976194    -0.046270859   -6.3324843      159.31392     -0.52374104    -11.045991      3.8701007      1.548026       55.610918      67.435168      57.022995      2              213843.74      1.1063843      9733.7702      9450.4182     -4748.5978      652.68337      2648.4987      12125.135     -18557.336     -3783.7013      750          
Loop time of 16431.2 on 16 procs for 750000 steps with 20020 atoms

Performance: 3.944 ns/day, 6.086 hours/ns, 45.645 timesteps/s, 913.813 katom-step/s
98.9% CPU use with 16 MPI tasks x no OpenMP threads

MPI task timing breakdown:
Section |  min time  |  avg time  |  max time  |%varavg| %total
---------------------------------------------------------------
Pair    | 10345      | 10747      | 11292      | 270.6 | 65.41
Bond    | 2459.4     | 2568.4     | 2681.7     | 106.0 | 15.63
Kspace  | 862.47     | 1520.5     | 2032.4     | 824.5 |  9.25
Neigh   | 909.4      | 909.56     | 909.67     |   0.3 |  5.54
Comm    | 181.21     | 182.99     | 184.42     |   6.6 |  1.11
Output  | 101.8      | 101.8      | 101.81     |   0.0 |  0.62
Modify  | 252.86     | 336.43     | 376.41     | 256.2 |  2.05
Other   |            | 64.03      |            |       |  0.39

Nlocal:        1251.25 ave        1319 max        1196 min
Histogram: 2 2 1 1 3 2 2 2 0 1
Nghost:        12371.3 ave       12462 max       12278 min
Histogram: 3 1 0 0 1 4 5 0 1 1
Neighs:         673308 ave      737331 max      620152 min
Histogram: 1 3 1 1 2 3 3 1 0 1

Total # of neighbors = 10772936
Ave neighs/atom = 538.10869
Ave special neighs/atom = 5.9076923
Neighbor list builds = 35310
Dangerous builds = 0

#-------------------Wrap up-------------------
write_restart  ${myid}.restart
write_restart  tensile_2_PBZ_pxld_88_replicate_2_FF_PCFF.restart
System init for write_restart ...
PPPM initialization ...
  using 12-bit tables for long-range coulomb (../kspace.cpp:342)
  G vector (1/distance) = 0.17590086
  grid = 15 15 15
  stencil order = 5
  estimated absolute RMS force accuracy = 0.026540667
  estimated relative force accuracy = 7.9926431e-05
  using double precision KISS FFT
  3d grid and FFT values/proc = 1690 256
Generated 36 of 36 mixed pair_coeff terms from sixthpower/sixthpower mixing rule
write_data     ${myid}.data
write_data     tensile_2_PBZ_pxld_88_replicate_2_FF_PCFF.data
System init for write_data ...
PPPM initialization ...
  using 12-bit tables for long-range coulomb (../kspace.cpp:342)
  G vector (1/distance) = 0.17590086
  grid = 15 15 15
  stencil order = 5
  estimated absolute RMS force accuracy = 0.026540667
  estimated relative force accuracy = 7.9926431e-05
  using double precision KISS FFT
  3d grid and FFT values/proc = 1690 256
Generated 36 of 36 mixed pair_coeff terms from sixthpower/sixthpower mixing rule
Total wall time: 4:33:51
