thermo_style   custom step temp pe ke etotal press pxx pyy pzz v_etrue v_eengx v_eengy v_eengz v_etruex v_etruey v_etruez                f_sxx_ave f_syy_ave f_szz_ave f_sxy_ave f_sxz_ave f_syz_ave lx ly lz v_dir vol density ebond eangle edihed                eimp evdwl ecoul elong epair v_Time

restart        ${nsteps} rst1.a.${myid} rst2.a.${myid}
restart        200 rst1.a.${myid} rst2.a.${myid}
restart        200 rst1.a.tensile_3_PBZ_pxld_87_replicate_5_FF_PCFF rst2.a.${myid}
restart        200 rst1.a.tensile_3_PBZ_pxld_87_replicate_5_FF_PCFF rst2.a.tensile_3_PBZ_pxld_87_replicate_5_FF_PCFF
dump           6 all atom 10000 dump.${myid} #every picosecond
dump           6 all atom 10000 dump.tensile_3_PBZ_pxld_87_replicate_5_FF_PCFF 
dump_modify    6 scale no sort id

#-------------------Run-------------------
run            ${steps}
run            750000

CITE-CITE-CITE-CITE-CITE-CITE-CITE-CITE-CITE-CITE-CITE-CITE-CITE

Your simulation uses code contributions which should be cited:

- Type Label Framework: https://doi.org/10.1021/acs.jpcb.3c08419

@Article{Gissinger24,
 author = {Jacob R. Gissinger, Ilia Nikiforov, Yaser Afshar, Brendon Waters, Moon-ki Choi, Daniel S. Karls, Alexander Stukowski, Wonpil Im, Hendrik Heinz, Axel Kohlmeyer, and Ellad B. Tadmor},
 title = {Type Label Framework for Bonded Force Fields in LAMMPS},
 journal = {J. Phys. Chem. B},
 year =    2024,
 volume =  128,
 number =  13,
 pages =   {3282–-3297}
}

CITE-CITE-CITE-CITE-CITE-CITE-CITE-CITE-CITE-CITE-CITE-CITE-CITE

PPPM initialization ...
  using 12-bit tables for long-range coulomb (../kspace.cpp:342)
  G vector (1/distance) = 0.18044235
  grid = 15 15 15
  stencil order = 5
  estimated absolute RMS force accuracy = 0.021494625
  estimated relative force accuracy = 6.4730424e-05
  using double precision KISS FFT
  3d grid and FFT values/proc = 1690 256
Generated 36 of 36 mixed pair_coeff terms from sixthpower/sixthpower mixing rule
Neighbor list info ...
  update: every = 1 steps, delay = 0 steps, check = yes
  max neighbors/atom: 5000, page size: 100000
  master list distance cutoff = 14
  ghost atom cutoff = 14
  binsize = 7, bins = 9 9 9
  1 neighbor lists, perpetual/occasional/extra = 1 0 0
  (1) pair lj/class2/coul/long, perpetual
      attributes: half, newton on
      pair build: half/bin/newton
      stencil: half/bin/3d
      bin: standard
WARNING: Inconsistent image flags (../domain.cpp:1051)
Per MPI rank memory allocation (min/avg/max) = 23.87 | 23.92 | 24.28 Mbytes
   Step          Temp          PotEng         KinEng         TotEng         Press           Pxx            Pyy            Pzz          v_etrue        v_eengx        v_eengy        v_eengz        v_etruex       v_etruey       v_etruez      f_sxx_ave      f_syy_ave      f_szz_ave      f_sxy_ave      f_sxz_ave      f_syz_ave          Lx             Ly             Lz           v_dir          Volume        Density         E_bond        E_angle        E_dihed        E_impro         E_vdwl         E_coul         E_long         E_pair         v_Time    
         0   298            10679.091      17782.505      28461.596     -378.77037     -442.4349      -308.24283     -385.63338      0              2.3994277e-16 -1.2323692e-16 -5.9978071e-16  2.220446e-16  -1.110223e-16  -5.5511151e-16  0              0              0              0              0              0              59.226017      57.656646      59.233544      3              202269.13      1.1696958      9788.2919      9251.3319     -4660.757       632.00571      2030.1107      12083.596     -18445.489     -4331.7819      0            
       200   300.59931      10821.494      17937.614      28759.108      479.7204       573.3309       235.83361      629.9967       3.99992e-05    4.7541307e-05  0.00025274276  4e-05          4.7540177e-05  0.00025271083  3.99992e-05   -6.7334802     -10.702976      8.8728009      10.96032       1.8678016      5.2656962      59.228832      57.671218      59.235913      3              202337.97      1.1692979      9872.7552      9361.8069     -4677.944       648.54096      2018.1957      12048.713     -18450.574     -4383.665       0.2          
       400   296.48179      11062.03       17691.909      28753.939     -470.38133     -817.14371     -324.96613     -269.03415      7.99968e-05    0.0010106549   0.0012737914   8e-05          0.0010101446   0.0012729808   7.99968e-05   -1.7617833     -6.4835187     -7.0866199     -5.3351077     -1.1499477      4.590771       59.285874      57.730088      59.238283      3              202747.68      1.1669349      9814.805       9413.8834     -4544.2437      647.29215      2130.8029      12052.514     -18453.024     -4269.7072      0.4          
       600   298.43773      10806.61       17808.626      28615.236     -1216.7472     -1763.5793     -1074.0995     -812.56276      0.0001199928   0.00025719268  0.0031386936   0.00012        0.00025715962  0.0031337782   0.0001199928   31.279998      8.1141272      27.858323      12.530538     -13.388193      1.3931824      59.241249      57.837612      59.240652      3              202980.53      1.1655963      9934.1909      9314.8316     -4636.0335      635.64241      1986.4586      12020.541     -18449.021     -4442.0214      0.6          
       800   297.31912      10755.99       17741.875      28497.866     -571.15197     -1107.919      -229.49197     -376.04494      0.0001599872  -0.0024882788   0.0033607202   0.00016       -0.0024913797   0.0033550856   0.0001599872   10.451448      3.040888       9.0401183     -3.551652      -2.6337738      4.9618132      59.078646      57.850413      59.243021      3              202476.3       1.168499       9651.9551      9364.3888     -4514.0326      656.36531      2017.3613      12030.608     -18450.656     -4402.6861      0.8          
      1000   298.37549      10803.026      17804.912      28607.938      523.99454      468.82732      1076.7081      26.448229      0.00019998    -0.006691411    0.0033204636   0.0002        -0.0067138989   0.003314963    0.00019998     10.905743      4.2341477      12.932244     -10.452793      5.6763595      4.8504649      58.829711      57.848092      59.245391      3              201623.12      1.1734436      9915.6119      9452.2666     -4769.4696      642.36591      2007.4583      12006.696     -18451.903     -4437.7492      1            
      1200   298.5564       10904.309      17815.707      28720.016     -288.34251      74.630238     -256.66981     -682.98795      0.0002399712  -0.0082794036   0.0032360161   0.00024       -0.0083138682   0.0032307914   0.0002399712  -36.337825      4.9555972     -13.386307      3.23302        10.355133     -2.2463338      58.73566       57.843223      59.24776       3              201291.89      1.1753745      9753.9694      9457.4137     -4571.3418      650.78381      2047.5549      12019.996     -18454.067     -4386.5159      1.2          
      1400   296.08525      10729.165      17668.246      28397.411      646.53572      697.49221      800.7872       441.32776      0.00027996081 -0.0070656343   0.0040169165   0.00028       -0.0070907141   0.0040088702   0.00027996081 -16.015438     -17.426973      26.124193     -14.567247      21.683097     -10.365729      58.807547      57.888248      59.250129      3              201703.19      1.1729777      9799.2695      9337.4326     -4695.3634      649.05534      2098.085       11992.85      -18452.164     -4361.2291      1.4          
      1600   299.4352       10755.583      17868.148      28623.731      326.31636      612.69841      281.04639      85.204278      0.00031994881 -0.0058182005   0.0033478949   0.00032       -0.0058351921   0.0033423032   0.00031994881 -9.7258183      27.779302      1.8810783      7.4671424     -4.8169465     -21.953749      58.881428      57.849674      59.252499      3              201830.09      1.1722402      9902.223       9264.453      -4654.3229      626.78218      2073.6854      11990.17      -18447.407     -4383.5522      1.6          
      1800   297.69323      10926.04       17764.2        28690.24      -187.14107     -1001.4087      48.210554      391.77498      0.00035993522 -0.0043982537   0.0029628579   0.00036       -0.0044079545   0.0029584773   0.00035993522 -5.4322047     -4.4592406      11.869605      1.7145596     -9.6746324      5.5431946      58.965525      57.827474      59.254868      3              202048.87      1.1709709      9758.2145      9395.4147     -4588.1465      647.21216      2123.215       12040.488     -18450.358     -4286.6548      1.8          
      2000   299.37419      10859.603      17864.507      28724.11       307.16488      503.12676     -130.98671      549.35458      0.00039992002 -0.0021851743   0.0030173455   0.0004        -0.0021875652   0.0030128025   0.00039992002 -5.4713672     -3.887796      -1.656793      -6.8998257      9.5696984     -21.543704      59.096597      57.830616      59.257237      3              202517.1       1.1682636      9882.917       9332.9781     -4717.1984      660.1738       2102.8596      12045.957     -18448.084     -4299.2678      2            
      2200   297.40657      10666.424      17747.093      28413.517     -32.078028     -177.43491      89.449863     -8.2490373      0.00043990323 -0.001919261    0.0022849611   0.00044       -0.0019211051   0.0022823545   0.00043990323  22.108234      22.402825      20.58734      -0.583499       1.9265563     -0.78876941     59.112346      57.788389      59.259607      3              202431.25      1.1687591      9649.1601      9295.3441     -4551.2164      641.33796      2023.6481      12054.094     -18445.943     -4368.2018      2.2          
      2400   300.22223      10812.441      17915.112      28727.553     -494.44928     -529.50225     -580.0483      -373.79729      0.00047988484 -0.0032496168   0.0011019054   0.00048       -0.0032549083   0.0011012988   0.00047988484  18.053756     -11.34549      -7.4782984      6.6894965     -6.6264809     -11.097832      59.033555      57.720178      59.261976      3              201930.87      1.1716552      9953.4552      9302.0486     -4658.4972      650.71932      1986.916       12026.966     -18449.167     -4435.285       2.4          
      2600   297.93791      10910.361      17778.8        28689.161     -150.62641     -568.82935      511.04763     -394.09752      0.00051986485 -0.0042336842  -3.2955819e-05  0.00052       -0.0042426716  -3.2956362e-05  0.00051986485 -28.045931     -7.9733369     -5.8104397      7.523067       15.396954      1.983236       58.975272      57.654745      59.264345      3              201510.88      1.1740972      9852.7555      9389.8286     -4541.3053      642.99771      1982.2544      12034.216     -18450.386     -4433.9158      2.6          
      2800   296.45293      10751.618      17690.187      28441.805     -467.67422     -341.49613     -573.63693     -487.8896       0.00055984326 -0.0041848376   0.00096394896  0.00056       -0.0041936185   0.00096348466  0.00055984326 -0.51058233    -9.6413176     -9.9659066      1.8636552      6.4381036      15.646372      58.978165      57.712224      59.266715      3              201729.74      1.1728234      9902.7185      9391.88       -4677.7972      623.13029      1942.8467      12019.324     -18450.485     -4488.314       2.8          
      3000   299.90858      10862.511      17896.396      28758.906     -661.8806       958.71924     -591.82383     -2352.5372      0.00059982007 -0.0037131594   0.0018010465   0.0006        -0.0037200703   0.0017994266   0.00059982007 -11.081849      7.6518718      7.7820532      7.0791556     -17.047292     -8.4002268      59.006101      57.760488      59.269084      3              202002.15      1.1712418      9889.6481      9407.2232     -4611.6554      638.13946      1980.1147      12008.424     -18449.384     -4460.8447      3            
      3200   299.20852      10798.995      17854.621      28653.616      256.10856      70.625501      266.70492      430.99526      0.00063979529 -0.002216039    0.0018973918   0.00064       -0.0022184981   0.0018955941   0.00063979529 -6.7036038     -3.5425325      2.191147       4.5047028     -2.4257505     -11.449268      59.094769      57.766043      59.271453      3              202333.24      1.1693252      9799.6693      9405.3927     -4726.8679      635.00223      2126.7071      12007.594     -18448.502     -4314.2011      3.2          
      3400   297.52657      10748.324      17754.254      28502.579     -1129.4276     -1789.7833     -1248.0973     -350.40223      0.0006797689   0.00011318434  0.0010153733   0.00068        0.00011317793  0.0010148582   0.0006797689   2.8313965      17.300838      4.8047519      5.5752046      6.3463898     -17.9641        59.23272       57.715189      59.273823      3              202635.13      1.1675831      9838.1337      9311.5786     -4581.4848      643.96861      1984.5751      11997.737     -18446.184     -4463.8717      3.4          
      3600   297.60467      10854.913      17758.915      28613.828     -602.18337     -540.35503     -1171.3912     -94.803835      0.00071974092  0.001694094   -0.00095314041  0.00072        0.0016926606  -0.00095359494  0.00071974092  11.163005      0.75327206     0.65169276    -0.19190704    -17.738445     -20.726292      59.326351      57.601691      59.276192      3              202564.42      1.1679907      9789.6083      9269.0724     -4435.7786      634.33379      2007.6933      12038.717     -18448.733     -4402.3225      3.6          
      3800   296.98506      10859.963      17721.941      28581.904      147.77181      396.10516      657.86416     -610.65389      0.00075971135  0.0012647099  -0.0016527842   0.00076        0.0012639108  -0.0016541516   0.00075971135  17.177445     -18.677615      9.9895922     -5.2428164      0.90437663     4.2120187      59.30092       57.561352      59.278561      3              202343.88      1.1692637      9953.5552      9427.2513     -4838.7122      620.61224      2097.6272      12048.365     -18448.736     -4302.7436      3.8          
      4000   296.68995      10548.904      17704.331      28253.234      115.09499      735.5419       389.66269     -779.9196       0.00079968017 -0.00039636384 -0.00071950195  0.0008        -0.00039644241 -0.00071976091  0.00079968017  26.363504      5.2998813      46.348395      6.4720273     -24.341064      7.4724124      59.202541      57.615162      59.280931      3              202205.12      1.1700661      9935.4027      9360.4101     -4877.324       630.65769      1921.6237      12026.704     -18448.57      -4500.2429      4            
      4200   299.16783      10661.649      17852.193      28513.843     -672.38892     -284.66848     -86.639564     -1645.8587      0.0008396474  -0.0031702766  -0.00062993552  0.00084       -0.0031753126  -0.00063013401  0.0008396474  -12.32381       4.7624212      12.247828     -0.31261117    -14.804616     -19.265654      59.038254      57.620326      59.2833        3              201670.13      1.17317        9690.8643      9316.8357     -4575.2987      619.78473      1997.1246      12060.477     -18448.138     -4390.5367      4.2          
      4400   298.72226      10820.17       17825.604      28645.774     -595.30928     -343.98374     -1184.3865     -257.55759      0.00087961303 -0.0043291693  -0.0006280976   0.00088       -0.0043385673  -0.00062829493  0.00087961303 -6.0676623     -20.70663      -27.546561     -1.7319613     -3.3554349      7.879215       58.969617      57.620432      59.285669      3              201444.1       1.1744864      9843.1773      9412.2293     -4638.5463      650.71892      2025.9508      11973.676     -18447.036     -4447.4094      4.4          
      4600   296.60247      10675.885      17699.11       28374.996     -639.93322     -546.29572     -1036.2998     -337.20414      0.00091957706 -0.0048557921   0.0020812517   0.00092       -0.0048676198   0.0020790889   0.00091957706 -11.73842      -11.638122      10.737816      2.0715996     -8.2070152     -4.425008       58.938427      57.776644      59.288039      3              201891.45      1.1718839      9825.5652      9222.8776     -4555.8386      650.55602      2033.7175      11949.72      -18450.713     -4467.2748      4.6          
      4800   297.28295      10836.574      17739.717      28576.291     -173.12374     -1254.3558      739.92055     -4.9359533      0.00095953949 -0.0039499488   0.0041883808   0.00096       -0.0039577705   0.004179634    0.00095953949 -16.995367      14.506166      10.950168     -11.734199     -5.1184245     -1.1156668      58.992077      57.898134      59.290408      3              202508.24      1.1683147      9849.2588      9348.3539     -4601.4361      636.49413      2067.9895      11986.706     -18450.793     -4396.0965      4.8          
      5000   297.76484      10860.342      17768.473      28628.815     -126.65395      44.050432      5.8251592     -429.83745      0.00099950033 -0.0027625988   0.0045597784   0.001         -0.0027664218   0.0045494141   0.00099950033 -1.3610969      9.0565346      19.34063       18.542189     -26.854312      2.7638756      59.062399      57.919547      59.292777      3              202832.73      1.1664456      9791.6268      9362.1378     -4593.0554      644.27719      2096.7515      12007.663     -18449.059     -4344.6439      5            
      5200   297.93571      10705.076      17778.669      28483.745     -700.15167     -1024.8603     -131.05104     -944.54366      0.0010394596  -0.0023695084   0.0038216389   0.00104       -0.0023723201   0.003814355    0.0010394596   30.781202      11.053995      7.6789298      11.965748      0.020559287   -8.6891086      59.08568       57.876988      59.295147      3              202771.69      1.1667968      9767.3319      9382.7621     -4743.3965      632.39859      2082.2137      12029.506     -18445.739     -4334.0198      5.2          
      5400   294.99229      10846.737      17603.027      28449.763     -182.49554      534.43885     -602.52937     -479.39609      0.0010794172  -0.0035998235   0.0024013922   0.00108       -0.0036063185   0.0023985134   0.0010794172  -11.40214       7.7421574     -0.33714568     2.2792376     -10.485326     -22.540853      59.012813      57.795102      59.297516      3              202243.17      1.169846       9759.1248      9278.4967     -4539.6211      658.05843      2054.9114      12081.68      -18445.913     -4309.3222      5.4          
      5600   297.45431      10949.021      17749.943      28698.964      89.141423      111.24873     -616.31257      772.48811      0.0011193733  -0.0043885724   0.0019450084   0.00112       -0.0043982304   0.0019431194   0.0011193733  -1.5261468     -18.767489      2.6421819      1.7434137     -10.725828      4.2531303      58.966099      57.768788      59.299886      3              201999.13      1.1712592      9951.596       9389.4363     -4699.2907      648.561        2055.1341      12054.448     -18450.863     -4341.2814      5.6          
      5800   298.48754      10637.045      17811.598      28448.643      684.31657      1153.7147      602.41457      296.82044      0.0011593277  -0.0033667959   0.002084698    0.00116       -0.0033724763   0.002082528    0.0011593277  -31.314357      5.1643858     -20.395056      2.1956771      6.5224919     -2.1359011      59.026615      57.776842      59.302255      3              202242.71      1.1698486      9689.7068      9292.5092     -4673.8215      636.33425      2085.2778      12057.793     -18450.754     -4307.6833      5.8          
      6000   295.41513      10576.35       17628.258      28204.608     -543.98594     -734.01121     -623.12102     -274.82558      0.0011992806  -0.00068679748  0.0013311259   0.0012        -0.00068703343  0.0013302407   0.0011992806   14.242308      9.886813       17.597113      6.7347147     -1.487465      -17.011506      59.18534       57.733394      59.304624      3              202642.15      1.1675426      9773.4776      9308.687      -4668.2698      631.19838      1972.453       12008.842     -18450.038     -4468.7434      6            
      6200   299.25692      10721.682      17857.509      28579.192      429.96292      295.18043      278.54289      716.16544      0.0012392318   0.00082608188  0.00018634943  0.00124        0.00082574086  0.00018633207  0.0012392318  -10.654243     -0.34932355     7.0860392      0.18631525    -3.2904963      2.1042464      59.274942      57.66739       59.306994      3              202725.02      1.1670654      9756.3862      9329.3229     -4715.4745      643.93661      2134.5645      12022.635     -18449.689     -4292.4888      6.2          
      6400   298.38941      10854.1        17805.743      28659.842      820.1682       819.61106      1193.1594      447.73415      0.0012791815   0.001449454   -0.0017999218   0.00128        0.0014484045  -0.0018015436   0.0012791815   9.6498452      28.246186      20.068628     -1.7829575     -0.84143391    -13.904329      59.311862      57.552868      59.309363      3              202456.53      1.1686131      9863.4923      9368.1177     -4748.7347      645.24045      2131.1039      12043.396     -18448.516     -4274.0161      6.4          
      6600   296.2197       10740.935      17676.269      28417.204     -308.18389      330.07025     -414.00088     -840.62104      0.0013191296   0.0016694625  -0.0028097711   0.00132        0.0016680705  -0.0028137259   0.0013191296  -4.1374803     -14.539238     -4.0179126     -5.9471061      19.998689     -14.140562      59.324892      57.494644      59.311732      3              202304.22      1.1694929      9710.7926      9411.5514     -4657.9048      653.07526      2001.5074      12070.569     -18448.656     -4376.5798      6.6          
      6800   296.85272      10841.267      17714.044      28555.311      196.157        381.93846     -285.883        492.41553      0.001359076    0.0014224632  -0.0031058202   0.00136        0.0014214524  -0.0031106533   0.001359076    20.159559      1.2707961      12.313035     -3.4226521     -8.9934786     -4.347972       59.310263      57.477574      59.314102      3              202202.37      1.170082       9831.3175      9393.6608     -4675.399       651.34276      2036.9401      12054.984     -18451.578     -4359.6545      6.8          
      7000   296.58387      11035.964      17698.001      28733.965     -964.14344     -171.77873     -1289.4915     -1431.1601      0.0013990209   0.00035007303 -0.002938244    0.0014         0.00035001177 -0.0029425691   0.0013990209  -1.2961996     -25.501743      13.851933      12.877223      11.322525     -11.577736      59.24675       57.487236      59.316471      3              202027.86      1.1710927      9807.9665      9278.2674     -4368.9272      665.48428      2068.3407      12034.981     -18450.148     -4346.8268      7            
      7200   295.4362       10814.333      17629.516      28443.849      440.82531     -134.28241      1264.6382      192.12016      0.0014389642  -0.00089388165 -0.0021610793   0.00144       -0.0008942814  -0.0021634178   0.0014389642   4.7966586     -7.2184839      0.15379604     4.7279041     -24.807713      14.777304      59.173075      57.532045      59.31884       3              201941.98      1.1715908      9891.1007      9351.2256     -4721.5149      646.68541      2071.375       12027.946     -18452.485     -4353.1641      7.2          
      7400   299.53976      10705.408      17874.387      28579.795     -679.17231      56.290591     -1279.0371     -814.77039      0.0014789059  -0.0015317277  -0.00032803263  0.00148       -0.001532902   -0.00032808644  0.0014789059  -2.6390028      1.8958479     -26.665087      11.343803      13.92131      -13.327101      59.135298      57.637732      59.32121       3              202191.86      1.1701428      9835.2094      9236.8022     -4565.0151      629.30813      1989.7246      12026.221     -18446.842     -4430.8964      7.4          
      7600   297.65554      10869.233      17761.951      28631.183     -8.2733408      640.13069     -247.12631     -417.82441      0.001518846   -0.0019012943   0.0013548433   0.00152       -0.0019031041   0.0013539263   0.001518846    3.6709238      0.21110689     3.8559397      17.75094      -9.1727582     -5.3183704      59.11341       57.734761      59.323579      3              202465.36      1.1685621      9816.8224      9451.6301     -4732.1701      641.48252      2079.0685      12061.941     -18449.542     -4308.5323      7.6          
      7800   298.03756      10800.669      17784.746      28585.415     -267.2598       314.34672     -620.15666     -495.96945      0.0015587845  -0.003334075    0.0022093315   0.00156       -0.0033396454   0.0022068945   0.0015587845   12.753777     -0.15450946     14.791303     -1.2122483     -0.82939397     6.6709274      59.028553      57.784028      59.325948      3              202355.32      1.1691976      9708.6258      9304.207      -4500.8913      653.03851      2020.703       12064.972     -18449.986     -4364.3112      7.8          
      8000   297.29725      10739.799      17740.57       28480.369      186.30574     -132.1345       254.99381      436.05792      0.0015987214  -0.0050222557   0.0019343234   0.0016        -0.0050349096   0.001932455    0.0015987214  -11.246869      13.366438     -9.0131067     -13.914629     -4.3470204     -14.095411      58.928568      57.768172      59.328318      3              201965.2       1.171456       9786.4555      9402.3288     -4736.9328      654.97527      2013.3369      12069.321     -18449.685     -4367.0276      8            
      8200   300.06975      10885.279      17906.013      28791.292     -337.36274      217.45938     -1544.4656      314.91799      0.0016386567  -0.0057361345   0.0019209972   0.00164       -0.0057526493   0.0019191545   0.0016386567  -20.774804     -17.080525     -6.5978578      2.3754986     -13.698713     -5.8193224      58.886288      57.767404      59.330687      3              201825.67      1.1722659      9955.2427      9241.7008     -4653.0186      657.61114      2083.4595      12050.671     -18450.388     -4316.2567      8.2          
      8400   297.19597      10711.765      17734.526      28446.291      784.74255      540.10037     -38.396709      1852.524       0.0016785904  -0.0048282569   0.0034469329   0.00168       -0.0048399506   0.0034410059   0.0016785904   3.4327623     -3.2030128     -17.090047      8.8031032      1.3044488     -0.78484667     58.940058      57.855384      59.333056      3              202325.7       1.1693687      9730.1166      9423.6627     -4738.7977      638.94591      2075.3188      12025.118     -18442.599     -4342.1623      8.4          
      8600   298.70734      10747.39       17824.714      28572.104      51.982513     -389.9848       25.183488      520.74885      0.0017185225  -0.0045043865   0.0039623893   0.00172       -0.0045145619   0.0039545597   0.0017185225   14.793041      6.5788689     -2.797348      -5.3152311     -25.165353      19.819794      58.95924       57.885104      59.335426      3              202503.6       1.1683415      9789.0089      9275.8186     -4579.2977      658.2663       2019.0445      12030.779     -18446.23      -4396.4063      8.6          
      8800   298.92767      11045.962      17837.862      28883.824     -3.525983       258.20085      271.34077     -540.11956      0.001758453   -0.005001371    0.0037608513   0.00176       -0.0050139197   0.003753797    0.001758453   -17.966619      9.0789998      15.34729      -4.8940562     -2.8564419     -16.581125      58.929805      57.873484      59.337795      3              202369.95      1.169113       9988.7361      9434.0767     -4711.3335      643.77649      2121.7544      12017.672     -18448.72      -4309.2934      8.8          
      9000   298.35824      10835.57       17803.882      28639.453     -647.37365     -1699.5782      34.811078     -277.35387      0.0017983819  -0.0032801056   0.0032676876   0.0018        -0.0032854969   0.0032623604   0.0017983819  -7.0446476      21.933471      16.046989      11.543367     -1.8529762     -9.5880484      59.031749      57.84505       59.340164      3              202628.53      1.1676211      9773.8193      9368.3228     -4582.8671      640.55904      2033.0393      12053.801     -18451.104     -4364.2635      9            
      9200   297.90797      10769.033      17777.013      28546.046      739.19557      676.46522      84.909726      1456.2118      0.0018383093  -0.0023435362   0.0019736773   0.00184       -0.0023462866   0.0019717322   0.0018383093   19.327018     -10.585551      14.952139     -0.66149471    -23.25412      -6.2704913      59.087218      57.770441      59.342534      3              202565.42      1.1679849      9795.1528      9449.7641     -4778.7566      628.04961      2065.8426      12055.963     -18446.982     -4325.177       9.2          
      9400   299.3673       10957.308      17864.096      28821.404     -390.30813     -98.668547      337.73847     -1409.9943      0.001878235   -0.0032767121  -9.4631623e-05  0.00188       -0.0032820923  -9.4636101e-05  0.001878235    7.2996221      2.7925904      34.256127     -2.4643649     -23.560779     -20.915457      59.03195       57.651189      59.344903      3              201966.26      1.1714499      9824.8927      9321.5288     -4551.2873      658.04938      2062.3076      12089.427     -18447.611     -4295.8757      9.4          
      9600   298.17194      10811.443      17792.765      28604.209      352.26822     -267.45016      1329.1101     -4.8553247      0.0019181592  -0.0024949817  -0.000818747    0.00192       -0.0024980994  -0.00081908235  0.0019181592  -7.0836951     -21.179787     -5.9310104     -5.7206492     -23.164289     -3.1956883      59.078249      57.609439      59.347272      3              201986.35      1.1713334      9811.4576      9333.9406     -4616.7963      646.03467      2084.1218      12000.658     -18447.973     -4363.193       9.6          
      9800   296.91679      10790.365      17717.867      28508.232     -520.53517      34.464571     -957.40941     -638.66068      0.0019580817  -0.0024777744   0.00066754601  0.00196       -0.0024808492   0.0006673233   0.0019580817  -0.57198943    -11.555379      7.7830341      12.665904     -3.2342581      7.0467446      59.079268      57.695134      59.349642      3              202298.37      1.1695267      9776.3551      9383.7171     -4606.9252      624.95474      2037.5481      12023.918     -18449.203     -4387.7365      9.8          
     10000   300.82881      10808.114      17951.308      28759.422      781.23011      1286.5875      793.40179      263.70107      0.0019980027  -0.0027136752   4.765732e-05   0.002         -0.0027173639   4.7656184e-05  0.0019980027  -12.533274      10.421114      16.950443      3.0968925     -20.146015      6.7833556      59.065296      57.659393      59.352011      3              202133.31      1.1704817      9756.6173      9378.2493     -4618.6579      645.08622      2035.4735      12061.344     -18449.999     -4353.1811      10           
     10200   294.2671       10799.623      17559.753      28359.376     -86.99385       653.39431     -856.19048     -58.185377      0.002037922   -0.0013755081   0.00085048004  0.00204       -0.001376455    0.00085011859  0.002037922   -11.315687     -10.623186     -2.8470339      2.363004       4.2011359     -13.903308      59.144551      57.705681      59.35438       3              202575.11      1.167929       9727.3813      9325.9397     -4555.6156      652.85536      2079.3983      12018.858     -18449.193     -4350.9375      10.2         
     10400   298.09684      10835.586      17788.284      28623.87       234.16802     -43.156969      643.49287      102.16815      0.0020778398  -0.00079858215  0.0008782892   0.00208       -0.00079890119  0.00087790373  0.0020778398   33.71937       3.434582       33.00527       7.1028654     -3.7862399     -10.953617      59.17872       57.707285      59.35675       3              202705.87      1.1671757      9942.0295      9285.5371     -4755.5875      625.09257      2141.0985      12043.875     -18446.459     -4261.4855      10.4         
     10600   298.67441      10875.58       17822.749      28698.33       961.62751     -148.54518      1318.8764      1714.5513      0.002117756   -0.0025242958   0.0013916374   0.00212       -0.0025274872   0.00139067     0.002117756    7.7704983      6.8200896      9.5076232      9.5723242     -18.592165     -14.952464      59.076513      57.736883      59.359119      3              202467.64      1.168549       9887.1185      9403.1698     -4762.3009      616.99779      2137.0032      12041.827     -18448.235     -4269.4048      10.6         
     10800   293.55673      10741.123      17517.363      28258.485      802.97146      1837.0203      211.08015      360.81397      0.0021576706  -0.0038281483   0.00098020617  0.00216       -0.0038354944   0.00097972609  0.0021576706  -8.5575195      16.272857     -6.0049261      0.75927099    -8.962911      -19.205419      58.999291      57.713161      59.361488      3              202127.98      1.1705126      9803.4485      9263.7823     -4653.8768      648.80852      2116.7129      12010.502     -18448.254     -4321.0399      10.8         
     11000   297.466        10783.949      17750.64       28534.589     -838.87941     -1157.7564     -1423.2677      64.385833      0.0021975835  -0.004918183    0.00059351255  0.0022        -0.004930317    0.00059333649  0.0021975835  -8.7431344     -11.320423     -9.6840699      26.122062     -10.418265     -10.501634      58.934732      57.690866      59.363858      3              201836.86      1.1722009      9782.7719      9270.4593     -4506.3107      650.93073      2042.6252      11995.981     -18452.508     -4413.902       11           
     11200   300.33726      10715.952      17921.976      28637.928      11.250467     -71.992263      827.97247     -722.22881      0.0022374949  -0.0050600698   0.0019671004   0.00224       -0.0050729153   0.0019651682   0.0022374949  -21.593764     -23.609642     -6.9612156     -18.112276     -27.776103     -16.116519      58.926329      57.770062      59.366227      3              202093.18      1.1707142      9742.8563      9327.9652     -4612.2202      651.84844      2019.8314      12037.873     -18452.202     -4394.4982      11.2         
     11400   295.93211      10602.865      17659.108      28261.973     -605.76817     -584.64579     -66.321204     -1166.3375      0.0022774047  -0.0035393428   0.0031646421   0.00228       -0.0035456211   0.0031596451   0.0022774047   3.8436647      19.240535      27.552767      12.320728     -16.928608      6.5061355      59.016395      57.839108      59.368596      3              202652.07      1.1674855      9815.3126      9244.838      -4682.0964      627.21211      2052.1557      11993.509     -18448.066     -4402.4016      11.4         
     11600   296.15137      10844.657      17672.192      28516.849      320.737       -105.6569       739.86186      328.00603      0.002317313   -0.0022685698   0.0028160071   0.00232       -0.0022711469   0.0028120495   0.002317313   -3.3354872      33.043843      17.489968     -1.281052       6.2816633      10.478658      59.091658      57.819007      59.370966      3              202848.09      1.1663573      9851.9674      9362.2288     -4642.9667      648.01601      2055.6561      12018.9       -18449.144     -4374.5885      11.6         
     11800   298.19998      10872.993      17794.439      28667.432     -543.37443     -826.04655     -811.43964      7.3628939      0.0023572196  -0.0018330145   0.00062942929  0.00236       -0.0018346966   0.00062923128  0.0023572196   27.38803       7.5670614      37.88749       1.7873714     -10.019111     -3.8898262      59.117454      57.692936      59.373335      3              202502.23      1.1683494      9954.0509      9384.8278     -4769.6204      648.13714      2060.5523      12040.814     -18445.769     -4344.4024      11.8         
     12000   299.3724       10829.788      17864.4        28694.188      214.74357     -82.565352      904.98923     -178.19316      0.0023971246  -0.0027252834  -0.0015383961   0.0024        -0.0027290038  -0.0015395806   0.0023971246   4.6037325     -22.278052     -29.145507      1.2195742     -0.27752728     20.338182      59.064609      57.567947      59.375704      3              201890.95      1.1718869      9848.0096      9381.1132     -4626.3211      630.24007      2032.1606      12013.654     -18449.068     -4403.2534      12           
     12200   294.72308      10792.72       17586.962      28379.682     -1205.4501     -468.98789     -468.13622     -2679.2263      0.002437028   -0.0028750786  -0.00089847127  0.00244       -0.0028792196  -0.00089887514  0.002437028   -26.823685     -37.478144      33.944095      6.4077866      3.2519529     -6.2521643      59.055737      57.604843      59.378074      3              201998.06      1.1712655      9700.2309      9432.7212     -4559.5261      632.28969      1993.878       12042.942     -18449.816     -4412.9956      12.2         
     12400   299.01363      10876.741      17842.991      28719.732      67.761968     -56.518585     -49.074985      308.87947      0.0024769299  -0.0021685726   0.00073967418  0.00248       -0.0021709273   0.00073940076  0.0024769299   23.726821      16.797738      18.400109     -0.80006558    -8.152415       2.3741084      59.097581      57.699293      59.380443      3              202480.7       1.1684736      9866.966       9428.5235     -4664.7918      651.00822      2058.6668      11986.324     -18449.957     -4404.9653      12.4         
     12600   297.42908      10894.984      17748.437      28643.421     -182.60611      157.40289     -100.60956     -604.61164      0.0025168301  -0.0029858316   0.00077043846  0.00252       -0.0029902981   0.00077014182  0.0025168301  -10.179834      18.133107      47.565592     -6.2873178     -5.3228586     -24.471678      59.049178      57.701066      59.382812      3              202329.15      1.1693488      9770.6273      9364.9562     -4506.1072      648.5956       2090.3431      11975.796     -18449.227     -4383.0877      12.6         
     12800   295.58493      10787.478      17638.391      28425.869     -679.46949      313.5354      -923.01782     -1428.9261      0.0025567288  -0.0026128071   0.00089529213  0.00256       -0.0026162264   0.00089489159  0.0025567288  -8.7977721     -8.2649743      29.931652      7.69299        16.458087      3.5340212      59.07127       57.708265      59.385182      3              202438.18      1.168719       9698.3834      9425.3955     -4587.1029      642.35153      2034.7063      12020.79      -18447.046     -4391.5498      12.8         
     13000   299.33209      10899.852      17861.995      28761.847     -255.20078     -1038.2436      186.56635      86.074891      0.0025966258  -0.001125628    0.00051059749  0.0026        -0.001126262    0.00051046718  0.0025966258   10.645486      1.736934       45.207582     -4.2164648     -8.8741004     -9.959805       59.15935       57.686085      59.387551      3              202670.19      1.1673811      9804.4524      9265.1787     -4457.047       654.26031      2059.1552      12023.607     -18449.754     -4366.9922      13           
     13200   297.12612      10930.723      17730.358      28661.081     -355.18345     -782.10314      220.08775     -503.53494      0.0026365213  -0.0018409173   0.00018966064  0.00264       -0.0018426138   0.00018964266  0.0026365213   9.731309      -9.2391447      10.322318      3.9085916     -12.6837       -9.2984029      59.116986      57.667581      59.38992       3              202468.17      1.1685459      9937.9866      9351.8189     -4664.9727      671.28566      2037.8896      12045.873     -18449.159     -4365.3959      13.2         
     13400   296.54631      10755.071      17695.759      28450.83       94.303179      674.14257     -475.97053      84.737496      0.0026764152  -0.0038126907   0.00068021666  0.00268       -0.0038199776   0.00067998542  0.0026764152  -0.11918755     8.4106145      5.0423824      7.8982485     -16.11006       8.6303729      59.000206      57.695865      59.39229       3              202175.39      1.1702382      9920.0903      9343.5617     -4814.6566      620.45704      2086.6229      12048.067     -18449.072     -4314.3816      13.4         
     13600   299.84403      10657.283      17892.543      28549.827     -445.52315     -305.26157     -787.23939     -244.06848      0.0027163075  -0.0050679682  -6.5246635e-05  0.00272       -0.0050808539  -6.5248763e-05  0.0027163075  -3.0860577     -9.8373408     -20.125558     -9.2077277      0.34364418    -6.0983597      58.925861      57.652884      59.394659      3              201778.26      1.1725414      9654.1452      9334.5521     -4610.2537      628.13987      2007.9118      12094.513     -18451.725     -4349.3003      13.6         
     13800   297.23691      10847.548      17736.969      28584.518      200.86859     -1358.461       1547.7421      413.32467      0.0027561982  -0.0054648317  -0.00079895364  0.00276       -0.0054798185  -0.00079927297  0.0027561982  -13.081297      4.2455103      6.7607535     -0.5850385     -5.7480999     -8.2348553      58.902356      57.610581      59.397029      3              201557.81      1.1738238      9756.816       9238.2129     -4413.2032      661.54102      1989.7432      12064.245     -18449.807     -4395.8185      13.8         
     14000   298.55513      10842.937      17815.632      28658.568      0.1292281      324.0451      -154.2945      -169.36291      0.0027960873  -0.0060814786   0.00052234218  0.0028        -0.0061000461   0.0005222058   0.0027960873   0.30827872    -0.28491051     8.8024726      17.219922     -19.569644     -29.474217      58.865835      57.686762      59.399398      3              201707.25      1.1729541      9835.9854      9484.2434     -4769.8318      633.40728      2053.7388      12052.259     -18446.865     -4340.8675      14           
     14200   295.8216       10948.755      17652.514      28601.269      113.39387      567.82712      570.45281     -798.09831      0.0028359748  -0.0048994999   0.0013670427   0.00284       -0.0049115418   0.0013661091   0.0028359748  -22.09822       8.035298       33.693878     -18.241656     -4.0593413     -3.2228509      58.935839      57.735465      59.401767      3              202125.68      1.1705259      9887.6138      9394.2084     -4634.0316      638.54467      2011.6611      12101.176     -18450.417     -4337.5801      14.2         
     14400   297.16721      10816.781      17732.81       28549.591     -694.91602     -332.26492     -483.8487      -1268.6344      0.0028758607  -0.0038311637   0.0013478568   0.00288       -0.0038385214   0.0013469492   0.0028758607   26.84659       5.5195947      10.07214      -6.4218012     -1.675844      -6.3993736      58.999112      57.734358      59.404137      3              202346.88      1.1692464      9849.6521      9353.9253     -4591.6223      649.50089      2011.796       11996.848     -18453.319     -4444.6754      14.4         
     14600   298.04266      11019.94       17785.051      28804.992      1030.9166      605.34094      1063.0844      1424.3243      0.0029157451  -0.0043426676   0.00056120045  0.00292       -0.0043521244   0.00056104304  0.0029157451  -17.834291     -11.143127      1.4156392      0.71343572    -8.8422807      14.67724       58.968818      57.689003      59.406506      3              202092.16      1.1707201      9903.2374      9471.1743     -4676.8676      645.92014      2107.2576      12016.537     -18447.318     -4323.5238      14.6         
     14800   299.64172      10709.002      17880.471      28589.473     -774.191       -1056.033      -1517.5386      250.99864      0.0029556278  -0.0031299024   0.0010519774   0.00296       -0.0031348108   0.0010514244   0.0029556278   3.3973181     -4.0207195      20.512095     -5.3508186      5.5704981     -13.939132      59.040645      57.717299      59.408875      3              202445.64      1.168676       9884.2594      9270.3809     -4675.2785      643.44114      1983.2538      12052.189     -18449.244     -4413.8014      14.8         
     15000   297.08419      10800.127      17727.856      28527.983     -359.05066     -557.42013     -710.41488      190.68303      0.002995509   -0.0037613385   0.0012545668   0.003         -0.0037684301   0.0012537805   0.002995509    23.381484      8.7197848      13.732691      16.86914      -17.494358     -3.4478779      59.003247      57.72898       59.411245      3              202366.42      1.1691335      9878.8286      9344.2924     -4639.9636      638.18598      1958.7121      12071.731     -18451.66      -4421.2168      15           
     15200   301.35271      10841.106      17982.571      28823.677     -249.66856      391.46191     -195.83558     -944.632        0.0030353885  -0.0059119054   0.00037520521  0.00304       -0.0059294499   0.00037513483  0.0030353885   2.9708301     -0.71714559     16.451403     -1.6124773     -30.98188      -11.536917      58.875878      57.678279      59.413614      3              201760.27      1.1726459      9861.45        9361.7927     -4626.1317      627.15431      1971.7725      12097.979     -18452.911     -4383.1594      15.2         
     15400   301.31614      10871.057      17980.389      28851.445     -388.51009     -704.13871     -1004.9865      543.59494      0.0030752665  -0.0061849698  -2.4509474e-09  0.00308       -0.006204176   -2.4509474e-09  0.0030752665  -15.680719     -9.2835502      16.041295      2.9970539     -1.5416237      8.7863497      58.859705      57.656645      59.415983      3              201637.24      1.1733614      9708.2994      9453.7571     -4523.8826      658.23286      1961.2773      12063.064     -18449.691     -4425.3503      15.4         
     15600   296.09902      10771.852      17669.068      28440.92      -607.57355     -1180.3437     -1146.1394      503.7625       0.0031151429  -0.006786378    0.00067384698  0.00312       -0.0068095102   0.00067362004  0.0031151429   2.359537       8.9902324     -9.3195201      13.01943       5.2932093     -10.77933       58.824086      57.695497      59.418353      3              201659.05      1.1732345      9805.9552      9363.7447     -4645.4618      644.94019      2025.0345      12023.874     -18446.235     -4397.3263      15.6         
     15800   297.36631      10823.697      17744.691      28568.388      47.815761      289.7323       623.83003     -770.11505      0.0031550177  -0.0066376117   0.00064655824  0.00316       -0.0066597386   0.00064634931  0.0031550177  -33.760195     -16.162512      11.954641     -16.152149     -1.1300647     -5.7984385      58.832897      57.693924      59.420722      3              201691.8       1.173044       9965.9842      9367.2862     -4803.0964      635.86479      2085.6949      12022.311     -18450.349     -4342.3423      15.8         
     16000   301.05668      10788.27       17964.906      28753.176      366.14544      428.16414      1007.8758     -337.60364      0.0031948909  -0.0049887497   0.0013907957   0.0032        -0.0050012351   0.0013898294   0.0031948909   4.2652267     -1.3352896      12.414204     -9.9382127     -19.511689     -27.408302      58.930553      57.736834      59.423091      3              202184.9       1.1701831      9890.5575      9252.6065     -4682.1514      636.6201       2100.6913      12038.344     -18448.398     -4309.3629      16           
     16200   293.32824      10849.447      17503.728      28353.175     -328.45246     -578.69243     -96.50202      -310.16292      0.0032347625  -0.0040218692   0.0016249531   0.00324       -0.0040299787   0.0016236343   0.0032347625   25.803754      31.549053      37.403882     -8.8312394     -17.713952     -14.11075       58.987817      57.750335      59.425461      3              202436.77      1.1687272      9793.0584      9353.3756     -4570.3682      636.44644      2016.8063      12070.281     -18450.153     -4363.065       16.2         
     16400   298.12756      10885.203      17790.117      28675.32      -68.587989      798.80303     -321.91951     -682.64749      0.0032746325  -0.0048616623   0.0010615877   0.00328       -0.0048735186   0.0010610246   0.0032746325  -2.1623696     -18.535389     -12.464665      0.61504349    -0.6300822     -5.5748494      58.93808       57.717853      59.42783       3              202160.37      1.1703251      9832.3818      9416.0409     -4639.4745      628.08396      2076.4803      12024.11      -18452.42      -4351.8296      16.4         
     16600   299.84831      10721.413      17892.799      28614.212     -174.28401      436.44176     -599.11807     -360.17572      0.003314501   -0.0046542077   0.0017782631   0.00332       -0.0046650722   0.0017766838   0.003314501    1.8474275     -10.365663      5.3387411      18.281132      1.0804574      9.7509942      58.950366      57.759174      59.430199      3              202355.34      1.1691975      9707.553       9355.8069     -4630.0467      659.80863      2062.504       12014.785     -18448.998     -4371.7085      16.6         
     16800   294.8627       10758.753      17595.294      28354.047      142.13751     -696.42441      670.33767      452.49927      0.0033543678  -0.0050960797   0.0017362015   0.00336       -0.005109109    0.0017346961   0.0033543678   7.5715804      26.597124      21.601117      17.384742     -25.422933     -9.6439551      58.924196      57.756749      59.432569      3              202265.08      1.1697192      9935.0495      9275.3659     -4758.4726      645.32171      2047.3161      12062.468     -18448.296     -4338.5115      16.8         
     17000   301.56223      10625.837      17995.073      28620.911      1336.8348      1207.1629      994.82234      1808.5191      0.0033942331  -0.0058568962   0.0010190448   0.0034        -0.005874115    0.0010185259   0.0033942331  -11.918505     -5.4238715      11.5091       -0.93520509     1.8715113     -13.300925      58.879136      57.7154        59.434938      3              201973.76      1.1714064      9790.8612      9266.6841     -4766.83        647.38871      2094.607       12041.744     -18448.617     -4312.2667      17           
     17200   298.1304       10760.549      17790.287      28550.836      309.12071      1404.9073     -449.40586     -28.139292      0.0034340967  -0.0066910955  -0.00012510768  0.00344       -0.0067135813  -0.00012511551  0.0034340967   0.79947313     9.9865506      13.67099       12.665799     -15.136973     -14.886294      58.82973       57.649432      59.437307      3              201581.66      1.1736849      9740.9853      9318.8961     -4596.116       652.34251      2026.3334      12063.473     -18445.365     -4355.5588      17.2         
     17400   294.27902      10703.406      17560.464      28263.87       445.91076      174.04239      1089.1555      74.534383      0.0034739588  -0.006114922   -0.0016948539   0.00348       -0.0061336947  -0.0016962917   0.0034739588  -17.140144     -18.378865      7.2635396      3.8857639     -5.8633638     -0.056454945    58.863854      57.558926      59.439677      3              201389.96      1.1748021      9900.2306      9338.1879     -4759.8133      631.36554      1970.7105      12071.173     -18448.448     -4406.5647      17.4         
     17600   298.83105      10853.193      17832.097      28685.29       20.952547     -330.41155      511.51153     -118.24234      0.0035138193  -0.0043137844  -0.001782044    0.00352       -0.0043231156  -0.0017836338   0.0035138193  -8.6933037     -22.989155      8.7594524      13.033518      5.049117      -12.123965      58.970528      57.553899      59.442046      3              201745.34      1.1727327      9849.7298      9306.0878     -4622.9363      662.62149      2037.1507      12070.262     -18449.722     -4342.3098      17.6         
     17800   295.94982      10925.144      17660.165      28585.31      -1343.5761     -2075.1814     -854.81135     -1100.7357      0.0035536782  -0.0019623977  -0.00071734565  0.00356       -0.0019643257  -0.00071760306  0.0035536782   25.41605       5.5124486      26.165821      1.0749736     -6.4216463     -3.6453805      59.109792      57.615286      59.444415      3              202445.54      1.1686766      9867.3061      9373.1412     -4480.4389      652.7609       1929.1178      12028.458     -18445.201     -4487.6249      17.8         
     18000   295.74209      10780.538      17647.769      28428.307     -331.54815      88.778564      91.264115     -1174.6871      0.0035935355  -0.0026579183   0.0016270891   0.0036        -0.0026614569   0.0016257669   0.0035935355   25.966002     -9.8803668      55.115691      9.0930167      5.8637708     -7.6585519      59.068599      57.750458      59.446785      3              202787.17      1.1667077      9889.605       9427.4863     -4778.7291      637.47953      1986.0802      12068.716     -18450.101     -4395.3042      18           
     18200   300.46938      10857.448      17929.86       28787.308      98.086063     -144.16226      366.26418      72.156263      0.0036333912  -0.0059731599   0.0024639509   0.00364       -0.0059910706   0.0024609203   0.0036333912   19.203719      5.1347052      23.530028      14.11448      -0.13409401    -3.6216815      58.87225       57.798709      59.449154      3              202290.02      1.169575       9962.762       9262.2884     -4733.8634      641.14703      2105.1937      12069.411     -18449.49      -4274.8859      18.2         
     18400   297.94971      10747.848      17779.504      28527.352      370.68473      395.57283      126.85335      589.628        0.0036732454  -0.0092915197   0.0024882377   0.00368       -0.0093349552   0.0024851472   0.0036732454   9.5480762      27.182361      20.809474      0.98699769    -6.8251411     -3.3649475      58.675717      57.800109      59.451523      3              201627.63      1.1734173      9922.7222      9244.7763     -4678.9118      635.34504      2023.4392      12050.214     -18449.737     -4376.0837      18.4         
     18600   300.33058      10584.185      17921.578      28505.763     -429.63005     -511.04036     -885.98867      108.13889      0.0037130979  -0.0099844006   0.001399887    0.00372       -0.010034579    0.0013989081   0.0037130979  -44.928506      11.661434      31.166297     -10.350011     -9.4737262     -14.073172      58.63468       57.737358      59.453893      3              201275.9       1.1754679      9787.3625      9334.2032     -4758.9917      630.45035      1995.4682      12042.696     -18447.003     -4408.8389      18.6         
     18800   296.90546      10895.577      17717.191      28612.769     -164.69359      234.50554     -854.81094      126.22462      0.0037529489  -0.0092600715  -0.00019462947  0.00376       -0.0093032125  -0.00019464842  0.0037529489  -10.360139     -5.9493355     -2.2065016      0.61324215     6.1243116     -7.2383056      58.677579      57.645424      59.456262      3              201110.45      1.1764349      9978.8258      9389.9748     -4632.1358      649.64086      1922.5442      12034.365     -18447.637     -4490.7283      18.8         
     19000   298.5622       10999.767      17816.053      28815.82      -834.67973     -1356.5698     -394.37218     -753.09723      0.0037927982  -0.0071783379  -0.00088257214  0.0038        -0.0072042261  -0.00088296183  0.0037927982  -14.111071     -18.937512      8.6436551      10.040407     -11.659065     -1.8539177      58.800872      57.605759      59.458631      3              201402.37      1.1747297      9906.5668      9392.5125     -4569.8589      640.21752      2016.4303      12062.416     -18448.517     -4369.671       19           
     19200   298.39378      10827.754      17806.003      28633.758     -122.6809      -579.56611     -267.11258      478.63599      0.003832646   -0.0058043267   0.00028694017  0.00384       -0.0058212372   0.00028689901  0.003832646    19.932297      17.469752      26.740235     -16.719353     -11.144968     -2.3508231      58.882249      57.67319       59.461001      3              201925.23      1.171688       9962.2479      9390.2121     -4796.4147      650.12768      2004.4717      12066.745     -18449.636     -4378.4187      19.2         
     19400   297.40986      10759.618      17747.29       28506.908     -569.79737     -1016.5423     -287.62981     -405.21997      0.0038724922  -0.0050863932  -0.00043103255  0.00388       -0.0050993729  -0.00043112547  0.0038724922   4.457524      -5.71021        5.0303319     -4.5639086     -16.671456      16.505648      58.92477       57.631794      59.46337       3              201934.05      1.1716368      9889.9985      9320.0681     -4623.8152      658.62424      1946.2051      12017.453     -18448.916     -4485.2576      19.4         
     19600   301.41959      10872.186      17986.562      28858.748      83.611329      206.13245     -1118.0234      1162.7249      0.0039123368  -0.0038990514  -0.00053487221  0.00392       -0.0039066725  -0.00053501531  0.0039123368  -17.358584     -9.7229391      12.044688      3.3719214     -29.227039     -8.0008232      58.995091      57.625807      59.465739      3              202162.09      1.1703151      9912.112       9290.293      -4663.6351      644.79314      2100.8445      12031.361     -18443.582     -4311.3769      19.6         
     19800   298.10425      10881.943      17788.726      28670.669     -232.79955      439.4041      -613.48148     -524.32125      0.0039521798  -0.0027977015  -4.1947481e-05  0.00396       -0.0028016224  -4.1948361e-05  0.0039521798   8.7045263      2.1329888      12.798764      1.5393849      5.9885348     -2.7781114      59.06032       57.654227      59.468109      3              202493.49      1.1683998      9928.4883      9293.4394     -4610.2138      646.83591      2045.2942      12025.419     -18447.321     -4376.6073      19.8         
     20000   298.38366      10774.558      17805.399      28579.958     -480.24903     -1378.9494     -319.36618      257.56852      0.0039920213  -0.0030695645   0.00090600124  0.004         -0.0030742853   0.00090559106  0.0039920213   17.393626     -17.399749      15.570263      0.5895523     -14.076274     -29.541531      59.044218      57.708883      59.470478      3              202638.27      1.167565       9861.974       9382.0898     -4678.3368      644.12138      1977.473       12034.582     -18447.345     -4435.2901      20           
     20200   299.82114      10859.258      17891.178      28750.436      1032.348       1185.2585      986.07272      925.71286      0.0040318611  -0.0053765919   0.0026080042   0.00404       -0.0053910978   0.0026046093   0.0040318611   8.2600969     -0.98563765     9.4439303      1.0751574     -2.2012559     -0.59223426     58.907582      57.807014      59.472847      3              202521.19      1.16824        9945.7036      9410.8692     -4780.4524      639.88243      2071.1699      12021.854     -18449.769     -4356.7449      20.2         
     20400   298.33886      10866.005      17802.726      28668.731      332.57443     -21.990272      430.06849      589.64509      0.0040716994  -0.0066683795   0.0035066957   0.00408       -0.0066907125   0.0035005616   0.0040716994  -7.4091271      14.263118      23.192458     -2.6524527     -3.6974592     -8.1480936      58.831075      57.85883       59.475217      3              202447.52      1.1686651      9940.4373      9433.1699     -4790.4456      625.53874      2053.8703      12052.402     -18448.967     -4342.6952      20.4         
     20600   298.56709      10674.748      17816.345      28491.093     -1002.4277     -617.4243      -1976.5568     -413.30212      0.004111536   -0.0083076315   0.0049671561   0.00412       -0.0083423322   0.0049548605   0.004111536   -4.0766842     -3.7419575     -19.873945      9.9302602     -9.482317      -7.2108809      58.733989      57.943035      59.477586      3              202415.64      1.1688492      9782.1821      9317.0735     -4634.5015      631.41284      1992.4032      12036.968     -18450.79      -4421.4192      20.6         
     20800   297.96196      11025.356      17780.235      28805.591     -611.43133     -296.80734     -684.56952     -852.91713      0.0041513711  -0.0084838994   0.0043430621   0.00416       -0.0085200925   0.0043336582   0.0041513711  -24.522586      16.766884      26.462839      17.740185     -2.0260469     -3.3454193      58.723549      57.907052      59.479955      3              202262.04      1.1697368      9900.7083      9530.2996     -4593.872       656.90844      2014.4201      11964.692     -18447.801     -4468.6888      20.8         
     21000   297.98188      10627.759      17781.424      28409.183      296.7863       215.15961     -151.48867      826.68798      0.0041912046  -0.0073627164   0.0026492595   0.0042        -0.007389955    0.0026457564   0.0041912046   11.782141      32.652489      14.349794     -6.1274786     -22.885161     -2.9456219      58.789952      57.809393      59.482325      3              202157.31      1.1703428      9849.5832      9347.6209     -4792.8547      627.00534      2063.7095      11976.595     -18443.9       -4403.5957      21           
     21200   298.70492      10776.287      17824.57       28600.856      2.5115562     -64.027173     -302.18237      373.74421      0.0042310365  -0.0075561321  -0.0010090463   0.00424       -0.0075848243  -0.0010095558   0.0042310365   2.6344342     -6.0674638      47.406591     -2.5765102     -15.382209     -6.2378908      58.778497      57.598467      59.484694      3              201388.49      1.1748107      9879.947       9336.7255     -4654.7864      632.96478      2018.3457      12008.03      -18444.94      -4418.5641      21.2         
     21400   296.87285      10960.868      17715.245      28676.113     -914.65704     -912.31035     -1095.1264     -736.53436      0.0042708669  -0.006499308   -0.0017093147   0.00428       -0.0065205205  -0.0017107772   0.0042708669  -13.862974     -36.265294      0.17165352    -6.5315052      4.1808434     -4.3450869      58.841088      57.558092      59.487064      3              201469.64      1.1743375      9954.3721      9414.4148     -4580.1573      659.38693      1996.1212      11966.324     -18449.593     -4487.1483      21.4         
     21600   295.79467      10677.421      17650.907      28328.328      931.47239      911.91039      1832.1719      50.334881      0.0043106956  -0.0063535524  -0.0012408929   0.00432       -0.0063738221  -0.0012416634   0.0043106956   14.243626      0.14524714    -13.114187     -0.81193438     6.6510976     -6.5713679      58.849721      57.5851        59.489433      3              201601.78      1.1735678      9940.839       9353.5162     -4838.882       652.53453      2020.9958      11997.031     -18448.613     -4430.5868      21.6         
     21800   296.6891       10897.84       17704.28       28602.121      140.46457      956.7212       217.57793     -752.9054       0.0043505227  -0.0063438529  -0.001074334    0.00436       -0.0063640607  -0.0010749115   0.0043505227  -12.071421      7.0175229      24.366653      14.04847      -6.6539805      22.818993      58.850295      57.594703      59.491802      3              201645.4       1.1733139      9866.5955      9354.8988     -4583.6964      644.56167      2054.6283      12007.84      -18446.988     -4384.5194      21.8         
     22000   297.639        10827.857      17760.963      28588.821     -133.34449      394.15814     -478.68374     -315.50786      0.0043903483  -0.006203457   -0.0011167789   0.0044        -0.0062227784  -0.001117403    0.0043903483  -7.1743688      10.929446      38.249977      14.738635      4.5156964      0.77281699     58.85861       57.592256      59.494172      3              201673.35      1.1731513      9928.1252      9399.0868     -4720.0807      623.94752      2022.708       12021.378     -18447.307     -4403.2216      22           
     22200   296.50508      10855.263      17693.299      28548.562     -217.30292      21.0875        234.30393     -907.3002       0.0044301723  -0.0040017918  -0.0010510026   0.00444       -0.0040098204  -0.0010515553   0.0044301723   3.7882703     -21.090593      2.3414821      0.47242656    -6.3976154     -10.88212       58.989006      57.596048      59.496541      3              202141.5       1.1704343      9802.024       9410.7427     -4583.7752      628.72951      2022.3773      12024.088     -18448.924     -4402.4581      22.2         
     22400   300.37736      10948.57       17924.369      28872.94      -313.22505     -855.5055      -366.03361      281.86397      0.0044699947  -0.0042702782  -0.00099778247  0.00448       -0.0042794219  -0.00099828058  0.0044699947   13.65462       10.048605      5.9444816     -5.4646743     -29.420575     -1.5216376      58.973105      57.599117      59.49891       3              202105.82      1.1706409      9880.4131      9429.5703     -4637.441       634.47832      2084.5052      12004.572     -18447.527     -4358.4504      22.4         
     22600   295.7562       10877.609      17648.611      28526.22      -139.87167     -722.72599      236.04667      67.064326      0.0045098155  -0.0057186515  -0.0011799028   0.00452       -0.0057350656  -0.0011805994   0.0045098155   24.399017      14.857166     -6.9523144      4.4623373     -15.236857     -14.18631       58.887324      57.588616      59.50128       3              201783.09      1.1725133      9870.9399      9413.0309     -4582.2735      642.10878      1959.0262      12022.412     -18447.635     -4466.1971      22.6         
     22800   300.11773      10710.636      17908.876      28619.513      500.60142      1607.1232      145.53686     -250.85577      0.0045496347  -0.0075084826  -0.0019952134   0.00456       -0.0075368132  -0.0019972065   0.0045496347  -8.6083        -14.262083      1.0195918      11.690392     -7.4030335      2.6827877      58.781319      57.541608      59.503649      3              201263.45      1.1755406      9831.1827      9352.7966     -4756.9231      649.06628      2018.0395      12063.915     -18447.441     -4365.486       22.8         
     23000   301.32311      10887.228      17980.805      28868.032     -675.77834     -1322.0814     -20.106393     -685.14723      0.0045894523  -0.0070275223  -0.00092324608  0.0046        -0.0070523316  -0.00092367253  0.0045894523  -7.8424663     -15.236542      21.364007      3.6177435      6.1381181      4.3391886      58.809804      57.603414      59.506018      3              201585.3       1.1736637      9822.1414      9417.4911     -4513.4509      622.88638      1963.949       12026.06      -18451.849     -4461.8402      23           
     23200   296.75843      10821.035      17708.417      28529.452     -382.95867     -209.02256     -386.8787      -552.97474      0.0046292684  -0.0070520875   0.00087805391  0.00464       -0.0070770709   0.00087766864  0.0046292684  -3.5324975     -7.6150448      4.6232065      1.1768822      6.1813654     -13.440131      58.808349      57.707271      59.508388      3              201951.79      1.1715338      9841.1285      9333.2922     -4587.2526      634.81903      2039.5901      12006.431     -18446.974     -4400.952       23.2         
     23400   297.65411      10815.237      17761.865      28577.102      232.48387      358.50299     -515.83323      854.78186      0.0046690828  -0.0082557395   0.0010534683   0.00468       -0.0082900068   0.0010529138   0.0046690828   12.775163      21.343346      42.894055      7.1818602     -13.84326       8.0865134      58.737062      57.717385      59.510757      3              201750.37      1.1727034      9986.9318      9392.7906     -4786.1887      644.66482      1972.6571      12053.323     -18448.942     -4422.9613      23.4         
     23600   300.98324      10961.497      17960.524      28922.021     -302.20406      422.70779     -1277.4663     -51.853615      0.0047088957  -0.0081454684   0.00041587692  0.00472       -0.008178824    0.00041579047  0.0047088957  -21.918831     -9.4748367      11.951239      3.7746978     -2.9531648     -5.2014985      58.743593      57.680624      59.513126      3              201652.32      1.1732737      9955.7372      9421.8901     -4641.0098      632.18136      2015.3878      12026.498     -18449.187     -4407.3015      23.6         
     23800   299.31768      10670.347      17861.135      28531.482      137.29819      332.21663      367.1478      -287.46987      0.004748707   -0.0070885831  -0.00033554956  0.00476       -0.0071138265  -0.00033560587  0.004748707    6.994265       21.008553      21.238174     -4.062287       1.8784829     -4.9150544      58.806188      57.637299      59.515496      3              201723.6       1.1728591      9712.8671      9368.0682     -4625.701       645.93203      2034.0516      11984.82      -18449.69      -4430.8188      23.8         
     24000   299.91305      10700.729      17896.663      28597.392     -385.54897     -308.81254      395.07007     -1242.9044      0.0047885167  -0.006015082   -0.0016322872   0.0048        -0.0060332455  -0.0016336209   0.0047885167   1.6495817     -14.269382      1.6582682      11.357395     -15.926963     -8.7083803      58.869767      57.562533      59.517865      3              201687.77      1.1730674      9765.0828      9452.1262     -4719.3329      628.71035      2058.7146      11966.953     -18451.525     -4425.8569      24           
     24200   301.76498      10767.787      18007.172      28774.959     -93.721086      762.07506     -298.73962     -744.4987       0.0048283249  -0.0052088118   0.0004686595   0.00484       -0.0052224249   0.00046854971  0.0048283249  -13.072503     -32.610035      12.346791     -8.7545083      1.2163986      3.4940387      58.917519      57.683667      59.520234      3              202284.19      1.1696087      9959.3796      9380.9037     -4786.8722      634.54928      1972.6195      12057.531     -18450.324     -4420.1737      24.2         
     24400   295.13034      10825.313      17611.264      28436.577     -378.55439     -375.18059     -118.92689     -641.55568      0.0048681314  -0.0042499229   0.0014081918   0.00488       -0.0042589795   0.0014072012   0.0048681314   11.075551      24.631264      28.984601     -15.901167     -18.453185      0.77896285     58.974311      57.737837      59.522604      3              202677.39      1.1673397      9887.3836      9288.6693     -4605.1593      655.97062      2041.5797      12011.041     -18454.172     -4401.5515      24.4         
     24600   298.0354       10846.833      17784.618      28631.451      651.71618      1333.4469     -292.87967      914.58127      0.0049079364  -0.0054933264   0.00042003309  0.00492       -0.0055084702   0.0004199449   0.0049079364   15.924249      24.694673      21.940341      13.690853     -1.0394433     -17.548868      58.900669      57.680863      59.524973      3              202232.61      1.169907       9759.5497      9318.7455     -4598.0127      649.48657      2115.6681      12051.382     -18449.986     -4282.9356      24.6         
     24800   299.95849      10758.915      17899.374      28658.289     -638.19488     -600.24631     -144.46956     -1169.8688      0.0049477397  -0.0060218371   0.00012964623  0.00496       -0.0060400415   0.00012963783  0.0049477397  -12.335168     -24.535378     -0.0079457153  -2.5561893     -5.8097564     -9.1610904      58.869367      57.664121      59.527342      3              202074.51      1.1708224      9835.0373      9406.1498     -4675.9497      621.41009      2021.6717      12001.894     -18451.298     -4427.7328      24.8         
     25000   294.90665      10920.147      17597.916      28518.064     -88.551073      17.9433       -527.2845       243.68799      0.0049875415  -0.0060045175   0.00022954072  0.005         -0.0060226171   0.00022951438  0.0049875415   14.534421     -2.0098802      16.931392     -7.0728925     -5.7749566     -7.7680809      58.870393      57.66988       59.529712      3              202106.26      1.1706384      9799.6116      9340.2393     -4518.9571      639.21981      2106.4485      12002.735     -18449.15      -4339.9663      25           
     25200   297.32146      10598.255      17742.015      28340.27       1268.7145      787.39538      2202.0407      816.70753      0.0050273417  -0.008733156   -0.00013417494  0.00504       -0.0087715135  -0.00013418394  0.0050273417   8.3230741      1.4237745      37.849305      0.44644668    -1.269957      -23.390057      58.708786      57.64891       59.532081      3              201486.18      1.1742411      9760.3714      9318.1109     -4721.8757      628.02531      2054.3209      12009.045     -18449.743     -4386.3772      25.2         
     25400   298.73908      10852.686      17826.608      28679.294      328.086        1791.6938      233.85627     -1041.292       0.0050671403  -0.01108372     8.2384311e-06  0.00508       -0.011145602    8.2383971e-06  0.0050671403  -13.662334     -1.1080087      19.725984      9.6444372      19.243701     -14.101393      58.569572      57.657121      59.53445       3              201045.03      1.1768177      9972.2         9391.5564     -4660.64        648.62791      1963.7926      11989.536     -18452.387     -4499.0584      25.4         
     25600   298.26154      10696.629      17798.112      28494.741     -290.58552     -347.37446     -452.45578     -71.926319      0.0051069374  -0.009911356    0.0016369084   0.00512       -0.0099608005   0.0016355702   0.0051069374  -35.271659     -8.8848481      10.383713      4.504161      -2.326923      -6.6247303      58.639006      57.751024      59.53682       3              201619.22      1.1734663      9795.7201      9376.9081     -4687.1451      639.81593      1971.5403      12050.711     -18450.921     -4428.6699      25.6         
     25800   296.06633      10853.099      17667.117      28520.217      952.46386      1493.5927      541.38988      822.409        0.0051467328  -0.0080460926   0.0022638944   0.00516       -0.008078637    0.0022613357   0.0051467328   0.85452992     0.63828948     25.275777     -4.2033669     -10.056652      2.4309975      58.749479      57.787174      59.539189      3              202133.54      1.1704804      9789.8182      9505.5458     -4681.8439      636.29169      2000.6882      12051.952     -18449.353     -4396.7127      25.8         
     26000   298.63555      10872.895      17820.43       28693.325     -119.41442     -656.70394      347.99727     -49.536603      0.0051865267  -0.0058459384   0.0025040351   0.0052        -0.0058630928   0.0025009053   0.0051865267   0.88812737    -0.40380996     6.0139951     -3.9411983      2.0005699     -12.088687      58.879785      57.80102       59.541558      3              202638.48      1.1675638      9783.2105      9338.1466     -4577.5936      653.90618      2133.4138      11990.719     -18448.908     -4324.7751      26           
     26200   298.31996      10911.526      17801.598      28713.124      836.13481      1476.9148      392.58453      638.90511      0.005226319   -0.0045296582   0.0027294804   0.00524       -0.0045399482   0.0027257621   0.005226319    3.0407278      29.269114      29.316833      10.628532     -3.4511861     -6.1690538      58.957743      57.814018      59.543928      3              202960.48      1.1657114      9850.4074      9430.2149     -4724.9149      663.43764      2094.9975      12045.291     -18447.908     -4307.6189      26.2         
     26400   297.36761      10694.863      17744.769      28439.632      262.24931      679.46928      1013.726      -906.44737      0.0052661097  -0.004067602    0.00051885082  0.00528       -0.0040758972   0.00051871626  0.0052661097   9.2157055      3.2600059      25.506306      0.037704797   -3.9199193     -13.117076      58.985109      57.686561      59.546297      3              202615.09      1.1676986      9766.5802      9339.9539     -4700.9763      643.80877      2079.6422      12017.67      -18451.816     -4354.5032      26.4         
     26600   298.91089      10870.796      17836.86       28707.657     -270.77021     -704.25213     -66.476386     -41.582111      0.0053058988  -0.0036370581  -0.0005472448   0.00532       -0.0036436883  -0.00054739459  0.0053058988  -7.8525402     -9.6870935      3.3776327     -12.156357     -17.829456      22.312111      59.010608      57.625093      59.548666      3              202494.75      1.1683925      9840.9211      9393.2039     -4697.4463      624.59363      2116.2701      12042.087     -18448.833     -4290.4759      26.6         
     26800   295.99461      11004.548      17662.838      28667.386      187.0656      -785.38933      558.46677      788.11935      0.0053456863  -0.00286634    -0.00032903617  0.00536       -0.0028704558  -0.00032909031  0.0053456863   2.3543034     -9.7014845      50.641348      22.318808     -1.9341292      0.19914925     59.056255      57.637674      59.551036      3              202703.7       1.1671882      9939.6148      9419.1063     -4694.252       655.13148      2089.4184      12043.232     -18447.703     -4315.0523      26.8         
     27000   295.3801       10991.044      17626.169      28617.212     -404.03299     -1534.1169     -199.55486      521.57281      0.0053854723  -0.003416165   -0.0012023191   0.0054        -0.0034220135  -0.0012030425   0.0053854723   17.459855      21.006934      36.992663     -25.795362      5.6897789      1.5634016      59.023691      57.587324      59.553405      3              202423         1.1688067      10082.017      9343.8494     -4760.556       633.82794      2084.6506      12057.807     -18450.553     -4308.0948      27           
     27200   297.85487      10747.51       17773.845      28521.355      427.34248      785.68441      306.31344      190.02959      0.0054252566  -0.0047588615  -0.0021024599   0.00544       -0.0047702209  -0.0021046731   0.0054252566   13.363967     -12.913715      13.557858     -5.3288655     -5.8192392      1.0233547      58.944168      57.535425      59.555774      3              201976.13      1.1713927      9809.1103      9300.8336     -4617.9323      626.78956      2068.0624      12014.796     -18454.149     -4371.2907      27.2         
     27400   296.60504      10702.554      17699.264      28401.818     -704.01432      774.63142     -1733.6315     -1153.0429      0.0054650394  -0.0062568819  -0.00080975521  0.00548       -0.0062765382  -0.00081008324  0.0054650394  -18.70045      -32.230904      6.6579061     -7.6114262      16.727892     -28.599649      58.855446      57.609958      59.558144      3              201941.4       1.1715941      9712.1046      9436.5745     -4657.6506      645.90549      1978.8556      12037.501     -18450.737     -4434.3804      27.4         
     27600   302.2368       10684.815      18035.327      28720.142      150.08675      763.33908      240.30434     -553.38317      0.0055048206  -0.0058471571   0.00018841041  0.00552       -0.0058643187   0.00018839267  0.0055048206   0.6062892      11.018055      23.450373      5.2787159     -10.912368     -6.5888468      58.879713      57.667509      59.560513      3              202234.53      1.169896       9749.0531      9402.1662     -4688.4362      653.10462      2024.4887      11993.356     -18448.917     -4431.0729      27.6         
[...]
    744000   298.08328      11388.598      17787.475      29176.073     -715.91916     -114.41011      52.524529     -2085.8719      0.13871792    -0.037319411   -0.048268846    0.1488        -0.038033606   -0.049472686    0.13871792    -8.035416       23.977268      146.53873     -15.336228     -2.0678375     -5.0533934      57.015736      54.873626      68.047495      3              212897.49      1.1113018      9818.2751      9321.6732     -4615.4821      631.58127      2575.2379      12099.894     -18442.581     -3767.449       744          
    744200   295.88907      11523.744      17656.54       29180.285     -59.918036      651.78654      94.868378     -926.40903      0.13875274    -0.037574427   -0.049788104    0.14884       -0.038298543   -0.051070271    0.13875274    -1.8109752      2.6848785      167.86368     -2.3911441     -20.01263      -12.105924      57.000633      54.786031      68.049865      3              212508.73      1.1133347      9893.5335      9459.6049     -4692.1567      656.06108      2550.8465      12098.284     -18442.429     -3793.2983      744.2        
    744400   299.95295      11540.241      17899.043      29439.285     -1198.7885     -688.79779     -720.3407      -2187.2271      0.13878755    -0.03677158    -0.050574136    0.14888       -0.037464699   -0.051897831    0.13878755    -10.222772      5.9675292      156.00634     -9.0545582     -10.360861      1.4387998      57.048182      54.740711      68.052234      3              212517.47      1.113289       9972.9114      9233.289      -4497.6468      661.61272      2509.3637      12101.7       -18440.988     -3829.9249      744.4        
    744600   295.80475      11383.531      17651.508      29035.039      39.797354      513.56619      210.03776     -604.21189      0.13882237    -0.035435594   -0.052097461    0.14892       -0.036078672   -0.053503589    0.13882237     1.5607941      2.184682       189.32073     -1.3546434      11.625987     -15.255466      57.127307      54.652881      68.054603      3              212478.17      1.1134949      9980.3933      9343.1192     -4798.083       626.90212      2587.2245      12084.605     -18440.63      -3768.8009      744.6        
    744800   299.00694      11386.382      17842.592      29228.974     -1129.3282     -721.58992     -34.292337     -2632.1023      0.13885719    -0.034256435   -0.05294361     0.14896       -0.034856941   -0.054396641    0.13885719     2.1077125     -4.9309472      181.38139     -22.246959     -2.0821714     -7.0094335      57.197144      54.604095      68.056973      3              212555.42      1.1130902      9877.5348      9335.8371     -4643.8539      626.94507      2520.1194      12113.592     -18443.792     -3810.0807      744.8        
    745000   298.45858      11500.412      17809.87       29310.282     -883.52924      551.76568     -798.24645     -2404.107       0.138892      -0.033612805   -0.053050943    0.149         -0.034190702   -0.054509981    0.138892       17.784843     -18.499731      166.55722     -15.735498     -8.3189749      5.4544114      57.235264      54.597906      68.059342      3              212680.38      1.1124362      9903.5594      9447.688      -4611.0321      646.40096      2446.0388      12112.929     -18445.172     -3886.2045      745          
    745200   293.75273      11340.608      17529.058      28869.666     -969.77483     -365.93781      149.88497     -2693.2717      0.13892681    -0.033983203   -0.052103672    0.14904       -0.034574056   -0.053510141    0.13892681    -4.3642629     -0.32900628     172.33531     -7.6882127      6.8054145      2.5417884      57.213327      54.652523      68.061711      3              212818.94      1.1117119      9797.0897      9405.3374     -4624.31        645.08595      2466.7186      12094.811     -18444.126     -3882.5955      745.2        
    745400   294.27561      11579.005      17560.26       29139.265      497.72633      758.17049      822.02653     -87.018025      0.13896162    -0.035377827   -0.051838135    0.14908       -0.036018785   -0.053230047    0.13896162     22.364384      14.984003      188.81349     -11.739283      11.580925      6.0042832      57.130729      54.667833      68.064081      3              212578.63      1.1129687      10003.825      9446.1114     -4762.5879      649.97556      2655.8788      12026.659     -18440.857     -3758.3191      745.4        
    745600   298.63185      11467.728      17820.21       29287.937     -617.04016      839.43243     -1057.0299     -1633.523       0.13899643    -0.037067833   -0.052037939    0.14912       -0.037772309   -0.053440797    0.13899643    -25.970041     -8.0617056      133.86787     -1.8654903      10.711123      2.3213794      57.030636      54.656313      68.06645       3              212168.86      1.1151182      9932.0266      9364.278      -4658.7527      635.29707      2595.8428      12038.22      -18439.184     -3805.1211      745.6        
    745800   297.78915      11149.293      17769.923      28919.217      407.05761      639.35177      1782.3952     -1200.5742      0.13903124    -0.037625851   -0.053104473    0.14916       -0.038351976   -0.054566512    0.13903124     6.2916301      20.880295      169.99684      1.3035466     -7.0972799      18.630775      56.997587      54.59482       68.068819      3              211814.71      1.1169826      9710.0051      9314.628      -4628.4463      659.52871      2529.765       12008.442     -18444.63      -3906.4225      745.8        
    746000   295.08167      11465.245      17608.36       29073.605     -810.58276      160.07509     -442.41056     -2149.4128      0.13906605    -0.037012715   -0.054074355    0.1492        -0.03771507    -0.055591312    0.13906605    -31.781379     -24.13286       183.26034     -8.1666835     -3.2127147     -7.558264       57.033901      54.5389        68.071189      3              211739.94      1.1173771      9888.702       9359.836      -4579.9948      658.96401      2567.2066      12014.372     -18443.841     -3862.2624      746          
    746200   300.67663      11289.511      17942.228      29231.739     -906.78969      82.505019     -700.20533     -2102.6688      0.13910085    -0.034545308   -0.053622843    0.14924       -0.035156105   -0.055114104    0.13910085     2.9218724     -9.7115697      198.38278      2.2307885     -10.520015      8.0073499      57.180036      54.564932      68.073558      3              212391.19      1.1139509      9798.2149      9415.495      -4682.9624      647.05703      2521.4488      12033.12      -18442.862     -3888.2935      746.2        
    746400   294.74841      11686.888      17588.474      29275.362     -96.906238      476.55026      989.1444      -1756.4134      0.13913566    -0.033410774   -0.05264918     0.14928       -0.033981666   -0.0540858      0.13913566     10.429868      20.828915      212.84444     -3.9752498     -2.7846987      10.150717      57.247229      54.62107       68.075927      3              212866.95      1.1114612      9991.0271      9449.1296     -4621.0815      646.5591       2584.5645      12080.14      -18443.451     -3778.7462      746.4        
    746600   296.22828      11370.058      17676.782      29046.84      -1023.4461     -1337.811       559.1386      -2291.666       0.13917046    -0.033039573   -0.052324582    0.14932       -0.033597708   -0.053743221    0.13917046     18.230122     -5.6773425      177.0849      -6.8523692      20.747181      4.6906408      57.269214      54.639786      68.078297      3              213029.08      1.1106153      9838.492       9343.6015     -4607.3555      643.19325      2512.7868      12080.193     -18440.853     -3847.8729      746.6        
    746800   298.48782      11507.908      17811.615      29319.523      250.88206      1256.6459     -15.512576     -488.48713      0.13920527    -0.033619501   -0.052840165    0.14936       -0.034197631   -0.05428742     0.13920527     5.0951807      0.84122779     172.27177     -0.1483289     -5.3854831     -0.84017669     57.234867      54.610059      68.080666      3              212792.89      1.111848       9953.4649      9390.764      -4734.7778      633.56749      2622.5792      12084.527     -18442.216     -3735.11        746.8        
    747000   298.25376      11483.561      17797.648      29281.209     -273.29495      488.76795      531.60966     -1840.2625      0.13924007    -0.03502908    -0.052843564    0.1494        -0.035657312   -0.054291009    0.13924007    -7.8468134     -22.879998      147.19387     -1.5758335      10.830952      5.6376157      57.151384      54.609863      68.083035      3              212489.14      1.1134374      9836.6152      9299.1051     -4618.6169      650.27585      2683.7729      12077.553     -18445.144     -3683.8183      747          
    747200   298.42605      11199.04       17807.929      29006.969     -876.0124      -334.13498     -28.468173     -2265.434       0.13927487    -0.035819386   -0.050328236    0.14944       -0.036476643   -0.051638866    0.13927487    -8.8915415     -13.236253      185.22473     -18.799272     -5.2351543     -6.7165697      57.104577      54.754888      68.085405      3              212886.36      1.1113598      9749.1567      9290.8254     -4611.3574      650.07929      2535.2214      12028.788     -18443.674     -3879.6645      747.2        
    747400   296.75625      11325.453      17708.287      29033.74      -725.80296     -54.876169     -284.13449     -1838.3982      0.13930967    -0.035652762   -0.047409881    0.14948       -0.036303844   -0.048570563    0.13930967     2.2132029      18.318585      178.34927      4.2488318     -19.789618      17.692929      57.114445      54.923151      68.087774      3              213584.9       1.1077251      9744.8212      9485.6682     -4746.1793      634.60766      2594.6018      12056.34      -18444.406     -3793.4652      747.4        
    747600   301.71495      11266.923      18004.187      29271.11      -1321.8708     -637.54451     -794.32584     -2533.7421      0.13934446    -0.036387371   -0.045944938    0.14952       -0.037065902   -0.047033892    0.13934446     10.28907       28.146776      172.37341     -17.338172     -15.724481     -2.4346916      57.070938      55.007615      68.090143      3              213757.85      1.1068289      9845.1939      9339.9331     -4738.5787      626.5194       2560.263       12076.749     -18443.157     -3806.1447      747.6        
    747800   299.80653      11472.1        17890.306      29362.407      7.0037933      450.18674     -82.32016      -346.85521      0.13937926    -0.037388381   -0.04719279     0.14956       -0.038105252   -0.048342694    0.13937926    -11.836296      15.967579      168.12213     -6.8599584     -5.218597       4.1820023      57.011652      54.935668      68.092513      3              213263.92      1.1093923      9876.2719      9423.4452     -4732.0697      645.94662      2621.4094      12081.042     -18443.945     -3741.4936      747.8        
    748000   294.64831      11430.746      17582.5        29013.246     -1374.1368     -822.83942     -300.34951     -2999.2213      0.13941406    -0.037765824   -0.049223669    0.1496        -0.038497432   -0.050476438    0.13941406     4.5989965      5.5763243      178.22848     -13.613958     -4.1063615      4.7883453      56.989297      54.818574      68.094882      3              212733.31      1.1121594      9846.6969      9300.5394     -4546.7191      651.57902      2564.0459      12060.322     -18445.718     -3821.3502      748          
    748200   299.30267      11437.944      17860.239      29298.183     -632.14735     -45.016047      766.89749     -2618.3235      0.13944885    -0.03839508    -0.050278496    0.14964       -0.039151599   -0.051586491    0.13944885     4.510754      -29.526561      188.84659     -12.516096      3.2243846      0.45392341     56.952029      54.757756      68.097251      3              212365.73      1.1140845      9887.3486      9380.5365     -4614.9492      654.27794      2516.2303      12060.497     -18445.997     -3869.2703      748.2        
    748400   298.34726      11466.859      17803.227      29270.086     -644.45723      598.86602     -873.57185     -1658.6658      0.13948364    -0.038725767   -0.049332253    0.14968       -0.039495548   -0.05059065     0.13948364    -17.469578     -8.3434643      142.56915     -10.504613     -18.05443       10.529593      56.932444      54.812313      68.099621      3              212511.6       1.1133197      9930.0824      9299.0229     -4601.0937      655.19182      2597.7052      12028.601     -18442.651     -3816.3447      748.4        
    748600   295.51434      11549.966      17634.179      29184.145      263.37467      841.00777      1051.0356     -1101.9194      0.13951843    -0.038032268   -0.048915159    0.14972       -0.038774371   -0.050152008    0.13951843    -1.7205463      9.3321364      188.46122     -18.801241      7.2192495     -5.6223817      56.973517      54.836362      68.10199       3              212765.62      1.1119905      9947.3484      9394.156      -4702.5127      658.53746      2581.8601      12121.356     -18450.779     -3747.5631      748.6        
    748800   298.73144      11613.01       17826.153      29439.163     -1226.682      -668.52583     -193.27345     -2818.2467      0.13955322    -0.037296345   -0.048717812    0.14976       -0.038009646   -0.049944533    0.13955322     4.1905269      5.0339985      167.27394     -13.137314      5.3972706     -7.2374072      57.017103      54.84774       68.104359      3              212979.99      1.1108713      9852.3733      9389.3065     -4466.1552      667.4492       2557.3847      12056.869     -18444.217     -3829.9634      748.8        
    749000   297.4477       11467.066      17749.548      29216.614     -389.74906     -330.60567      286.6852      -1125.3267      0.13958801    -0.036657144   -0.049764278    0.1498        -0.037345901   -0.051045196    0.13958801    -4.4969568      15.466294      172.86587     -1.0011026     -2.2660414      12.175582      57.05496       54.787404      68.106729      3              212894.36      1.1113181      9799.5956      9409.6195     -4584.4554      650.28626      2588.8666      12049.25      -18446.097     -3807.9801      749          
    749200   295.89795      11517.043      17657.07       29174.113     -909.34904      84.55445      -1535.2789     -1277.3227      0.1396228     -0.035488189   -0.051108784    0.14984       -0.036133201   -0.052461117    0.1396228     -4.8382437     -10.257607      182.11559     -13.764438     -19.446435      26.053776      57.124192      54.709885      68.109098      3              212858.5       1.1115053      10076.307      9379.1603     -4748.4911      644.74783      2556.2194      12052.307     -18443.208     -3834.6816      749.2        
    749400   300.41932      11611.98       17926.873      29538.852     -1016.2937     -195.43141     -882.40376     -1971.0458      0.13965759    -0.033801616   -0.053270651    0.14988       -0.034386099   -0.054742025    0.13965759     13.691205      8.9729827      181.92121     -13.791757     -3.5998797      6.8132319      57.224081      54.585239      68.111468      3              212752.31      1.1120601      9972.5794      9541.5066     -4770.8021      651.02368      2585.9334      12078.549     -18446.81      -3782.3279      749.4        
    749600   301.21564      11478.946      17974.391      29453.337     -806.98776     -1071.5036     -525.374       -824.0857       0.13969237    -0.033337581   -0.055483102    0.14992       -0.033905945   -0.057081701    0.13969237     16.135872     -17.563225      171.06662     -15.540276     -22.116521     -6.4943811      57.251564      54.457676      68.113837      3              212364.45      1.1140912      9797.3846      9363.1969     -4481.6386      640.67012      2538.2071      12064.014     -18442.888     -3840.6671      749.6        
    749800   296.33939      11377.077      17683.412      29060.488     -1566.1659     -1309.3904     -797.25681     -2591.8507      0.13972716    -0.034442385   -0.056691959    0.14996       -0.035049506   -0.058362389    0.13972716     6.6617399      8.9501639      181.61554     -6.2038347     -16.086008      18.310535      57.186131      54.387977      68.116206      3              211857.61      1.1167564      9811.3905      9444.0499     -4627.0554      635.90306      2481.5311      12075.559     -18444.302     -3887.2115      749.8        
    750000   297.99209      11459.31       17782.033      29241.344     -477.26371      500.03903      126.73194     -2058.5621      0.13976194    -0.036087097   -0.05769758     0.15          -0.036754338   -0.059429016    0.13976194    -5.727396      -22.610756      174.92211     -9.4179091      4.2576145      8.779224       57.088722      54.329997      68.118576      3              211278.62      1.1198168      9922.8671      9449.5978     -4642.3362      673.75312      2435.1185      12063.497     -18443.186     -3944.5714      750          
Loop time of 16685.3 on 16 procs for 750000 steps with 20020 atoms

Performance: 3.884 ns/day, 6.180 hours/ns, 44.950 timesteps/s, 899.892 katom-step/s
99.0% CPU use with 16 MPI tasks x no OpenMP threads

MPI task timing breakdown:
Section |  min time  |  avg time  |  max time  |%varavg| %total
---------------------------------------------------------------
Pair    | 9080.4     | 9975.6     | 11575      | 542.1 | 59.79
Bond    | 2346.8     | 2562.5     | 3811.4     | 653.3 | 15.36
Kspace  | 839.39     | 2431.5     | 3544.2     |1427.9 | 14.57
Neigh   | 931.01     | 943.63     | 948.39     |  23.4 |  5.66
Comm    | 217.93     | 239.36     | 292.98     | 153.4 |  1.43
Output  | 100.98     | 100.98     | 100.98     |   0.0 |  0.61
Modify  | 284.98     | 302.65     | 403.79     | 155.1 |  1.81
Other   |            | 129.1      |            |       |  0.77

Nlocal:        1251.25 ave        1305 max        1197 min
Histogram: 1 1 2 5 0 1 1 1 1 3
Nghost:        12049.1 ave       12129 max       11982 min
Histogram: 3 0 1 2 4 2 0 2 1 1
Neighs:         681454 ave      734007 max      621937 min
Histogram: 1 2 0 3 1 2 3 1 1 2

Total # of neighbors = 10903267
Ave neighs/atom = 544.61873
Ave special neighs/atom = 5.9076923
Neighbor list builds = 35494
Dangerous builds = 0

#-------------------Wrap up-------------------
write_restart  ${myid}.restart
write_restart  tensile_3_PBZ_pxld_87_replicate_5_FF_PCFF.restart
System init for write_restart ...
PPPM initialization ...
  using 12-bit tables for long-range coulomb (../kspace.cpp:342)
  G vector (1/distance) = 0.1754892
  grid = 15 15 15
  stencil order = 5
  estimated absolute RMS force accuracy = 0.027108242
  estimated relative force accuracy = 8.1635667e-05
  using double precision KISS FFT
  3d grid and FFT values/proc = 1521 256
Generated 36 of 36 mixed pair_coeff terms from sixthpower/sixthpower mixing rule
write_data     ${myid}.data
write_data     tensile_3_PBZ_pxld_87_replicate_5_FF_PCFF.data
System init for write_data ...
PPPM initialization ...
  using 12-bit tables for long-range coulomb (../kspace.cpp:342)
  G vector (1/distance) = 0.1754892
  grid = 15 15 15
  stencil order = 5
  estimated absolute RMS force accuracy = 0.027108242
  estimated relative force accuracy = 8.1635667e-05
  using double precision KISS FFT
  3d grid and FFT values/proc = 1521 256
Generated 36 of 36 mixed pair_coeff terms from sixthpower/sixthpower mixing rule
Total wall time: 4:38:06
