thermo_style   custom step temp pe ke etotal press pxx pyy pzz v_etrue v_eengx v_eengy v_eengz v_etruex v_etruey v_etruez                f_sxx_ave f_syy_ave f_szz_ave f_sxy_ave f_sxz_ave f_syz_ave lx ly lz v_dir vol density ebond eangle edihed                eimp evdwl ecoul elong epair v_Time

restart        ${nsteps} rst1.a.${myid} rst2.a.${myid}
restart        200 rst1.a.${myid} rst2.a.${myid}
restart        200 rst1.a.tensile_1_EPON_862_pxld_86.8_replicate_4_FF_PCFF_temp_10 rst2.a.${myid}
restart        200 rst1.a.tensile_1_EPON_862_pxld_86.8_replicate_4_FF_PCFF_temp_10 rst2.a.tensile_1_EPON_862_pxld_86.8_replicate_4_FF_PCFF_temp_10
dump           6 all atom 10000 dump.${myid} #every picosecond
dump           6 all atom 10000 dump.tensile_1_EPON_862_pxld_86.8_replicate_4_FF_PCFF_temp_10 
dump_modify    6 scale no sort id

#-------------------Run-------------------
run            ${steps}
run            750000

CITE-CITE-CITE-CITE-CITE-CITE-CITE-CITE-CITE-CITE-CITE-CITE-CITE

Your simulation uses code contributions which should be cited:

- Type Label Framework: https://doi.org/10.1021/acs.jpcb.3c08419

@Article{Gissinger24,
 author = {Jacob R. Gissinger, Ilia Nikiforov, Yaser Afshar, Brendon Waters, Moon-ki Choi, Daniel S. Karls, Alexander Stukowski, Wonpil Im, Hendrik Heinz, Axel Kohlmeyer, and Ellad B. Tadmor},
 title = {Type Label Framework for Bonded Force Fields in LAMMPS},
 journal = {J. Phys. Chem. B},
 year =    2024,
 volume =  128,
 number =  13,
 pages =   {3282–-3297}
}

CITE-CITE-CITE-CITE-CITE-CITE-CITE-CITE-CITE-CITE-CITE-CITE-CITE

PPPM initialization ...
  using 12-bit tables for long-range coulomb (../kspace.cpp:342)
  G vector (1/distance) = 0.18112911
  grid = 15 15 15
  stencil order = 5
  estimated absolute RMS force accuracy = 0.022416771
  estimated relative force accuracy = 6.7507441e-05
  using double precision KISS FFT
  3d grid and FFT values/proc = 1521 256
Generated 66 of 66 mixed pair_coeff terms from sixthpower/sixthpower mixing rule
Neighbor list info ...
  update: every = 1 steps, delay = 0 steps, check = yes
  max neighbors/atom: 5000, page size: 100000
  master list distance cutoff = 14
  ghost atom cutoff = 14
  binsize = 7, bins = 9 8 9
  1 neighbor lists, perpetual/occasional/extra = 1 0 0
  (1) pair lj/class2/coul/long, perpetual
      attributes: half, newton on
      pair build: half/bin/newton
      stencil: half/bin/3d
      bin: standard
WARNING: Inconsistent image flags (../domain.cpp:1051)
Per MPI rank memory allocation (min/avg/max) = 19.48 | 19.6 | 19.87 Mbytes
   Step          Temp          PotEng         KinEng         TotEng         Press           Pxx            Pyy            Pzz          v_etrue        v_eengx        v_eengy        v_eengz        v_etruex       v_etruey       v_etruez      f_sxx_ave      f_syy_ave      f_szz_ave      f_sxy_ave      f_sxz_ave      f_syz_ave          Lx             Ly             Lz           v_dir          Volume        Density         E_bond        E_angle        E_dihed        E_impro         E_vdwl         E_coul         E_long         E_pair         v_Time    
         0   9.9839868      18882.978      626.72359      19509.701      165.39014      252.24857     -6.4368491      250.35869      0              1.2129592e-16 -4.0426072e-16 -1.1653226e-16  2.220446e-16  -4.4408921e-16 -1.110223e-16   0              0              0              0              0              0              58.579275      52.729046      60.97391       1              188338         1.2744079      5965.4618      15130.667     -5550.4904      5.187542      -1136.6622      24322.98      -19854.167      3332.1516      0            
       200   10.047929      18886.844      630.7374       19517.581     -53.372357     -83.611767      125.28592     -201.79123      3.99992e-05    4e-05          3.4399795e-05  0.00018957996  3.99992e-05    3.4399203e-05  0.00018956199  3.9150938      0.10752216     0.90920437     8.0825592     -9.5176911      14.507582      58.581618      52.730859      60.98547       1              188387.72      1.2740716      5958.9048      15116.722     -5513.4191      4.2347791     -1138.8464      24314.647     -19855.399      3320.4016      0.2          
       400   10.029943      18887.733      629.60838      19517.342     -4.6811856     -24.384656      55.22398      -44.88288       7.99968e-05    8e-05          0.0004937005  -0.0004528361   7.99968e-05    0.00049357867 -0.00045293866  1.9665495     -0.18923852    -1.8366261      6.574672      -13.053558      11.545916      58.583961      52.755078      60.946299      1              188360.72      1.2742542      5944.7814      15131.703     -5521.2786      4.8851846     -1135.4077      24317.606     -19854.555      3327.6427      0.4          
       600   10.01257       18881.219      628.51786      19509.737      95.032869     -10.4494        233.80338      61.744627      0.0001199928   0.00012       -3.1996038e-05 -0.00040300146  0.0001199928  -3.199655e-05  -0.00040308269  5.0569185     -1.1197527      0.96640287     2.4952012     -7.5457159      10.502137      58.586305      52.727358      60.949338      1              188278.66      1.2748095      5947.5369      15130.054     -5532.8851      3.7569945     -1122.8407      24310.023     -19854.426      3332.756       0.6          
       800   10.031086      18882.478      629.68013      19512.158     -106.18573     -136.94423     -25.98697      -155.62601      0.0001599872   0.00016        0.00033313893 -0.00046966556  0.0001599872   0.00033308345 -0.00046977589  0.29689862     0.43993589    -0.3927072      5.9561899     -10.031999      12.514774      58.588648      52.746612      60.945273      1              188342.39      1.2743782      5953.9854      15125.791     -5524.2025      3.3035268     -1138.8374      24317.022     -19854.584      3323.6008      0.8          
      1000   10.03956       18885.028      630.21208      19515.24      -132.81248     -284.12865     -100.69277     -13.616035      0.00019998     0.0002         5.437348e-05  -0.0004611751   0.00019998     5.4372002e-05 -0.00046128147  1.8191607      0.77313325     0.54170037     8.158289      -10.979805      11.434039      58.590991      52.731913      60.94579       1              188299.03      1.2746717      5938.5285      15135.497     -5512.7604      4.2855651     -1145.5633      24319.411     -19854.37       3319.4768      1            
      1200   9.9265739      18880.999      623.11962      19504.118     -20.916326     -35.878245     -70.005773      43.135039      0.0002399712   0.00024       -0.00033831126  0.00027852231  0.0002399712  -0.0003383685   0.00027848353 -1.2546883     -0.56960381    -0.18004423     2.1120004     -13.211118      12.662613      58.593334      52.711207      60.990893      1              188371.92      1.2741785      5949.4615      15121.885     -5526.0621      4.0452426     -1139.5557      24325.687     -19854.462      3331.669       1.2          
      1400   9.9892966      18887.428      627.0569       19514.485      54.02153       15.662072      60.207124      86.195394      0.00027996081  0.00028       -8.1365241e-05 -0.00024959637  0.00027996081 -8.1368551e-05 -0.00024962753  5.4979499     -0.88475747    -0.029366806    3.9684128     -10.428606      11.862804      58.595677      52.724755      60.958691      1              188328.39      1.274473       5974.19        15123.608     -5547.1139      3.784321      -1135.0867      24322.952     -19854.906      3332.9594      1.4          
      1600   9.9922924      18884.561      627.24496      19511.806     -56.183763     -258.74627      58.104772      32.090211      0.00031994881  0.00032        0.00014709506 -0.00081083448  0.00031994881  0.00014708424 -0.00081116338  3.7779491     -0.20290077    -0.12270512     5.8262108     -5.8544914      10.457094      58.598021      52.736802      60.92447       1              188273.2       1.2748466      5950.3838      15121.3       -5510.756       4.570731      -1154.1676      24328.145     -19854.915      3319.0624      1.6          
      1800   9.9436804      18881.068      624.19344      19505.261      41.049596      20.834956     -72.772669      175.0865       0.00035993522  0.00036        0.00016794048 -0.00088448506  0.00035993522  0.00016792638 -0.00088487645  2.8761732      0.034197187   -1.6143151      4.9103215     -10.806937      14.567544      58.600364      52.737901      60.91998       1              188270.77      1.274863       5959.3553      15123.426     -5522.3951      5.2096387     -1148.9291      24319.703     -19855.302      3315.472       1.8          
      2000   10.028475      18887.646      629.51624      19517.162      135.31361     -16.758622      236.41953      186.27991      0.00039992002  0.0004        -6.8952203e-05 -0.00078647357  0.00039992002 -6.895458e-05  -0.000786783    1.4597703      0.932957       0.86604096     6.9099404     -9.8357609      12.28471       58.602707      52.72541       60.925956      1              188252.17      1.274989       5971.8479      15116.45      -5534.6254      3.263388      -1134.1049      24319.495     -19854.68       3330.7102      2            
      2200   10.058909      18879.379      631.42667      19510.806      53.709534      53.544646      23.150488      84.433469      0.00043990323  0.00044       -0.00023229527 -0.00081427506  0.00043990323 -0.00023232225 -0.00081460676  6.1048508     -0.90658025     0.18928008     3.6459241     -9.5961028      13.431341      58.60505       52.716797      60.924261      1              188223.71      1.2751818      5973.2448      15120.723     -5518.7998      4.9159996     -1163.7764      24317.815     -19854.744      3299.2951      2.2          
      2400   9.9472371      18883.401      624.41671      19507.818      3.7017359      155.01349     -82.140159     -61.768127      0.00047988484  0.00048       -0.00014825484 -0.0001769506   0.00047988484 -0.00014826583 -0.00017696626  1.2587421      0.03190906    -0.45646597     4.7770415     -9.4442044      10.596996      58.607393      52.721228      60.963121      1              188367.13      1.2742109      5957.1485      15124.939     -5523.8564      3.6743976     -1145.5378      24321.368     -19854.333      3321.4964      2.4          
      2600   10.001627      18885.057      627.8309       19512.888     -28.845182     -76.000347      131.56343     -142.09863      0.00051986485  0.00052       -0.00018534814 -0.00069828646  0.00051986485 -0.00018536532 -0.00069853037  6.9625313      0.32015019     0.28082573     4.5290369     -13.108847      9.2072897      58.609736      52.719272      60.931333      1              188269.45      1.2748719      5943.5773      15123.225     -5500.5348      3.9344508     -1147.4232      24316.699     -19854.421      3314.8545      2.6          
      2800   10.033809      18882.389      629.85105      19512.24      -121.76019     -264.22407      28.964332     -130.02082      0.00055984326  0.00056        0.00024041781 -0.00097218328  0.00055984326  0.00024038891 -0.00097265616  3.9463162     -0.36181707    -0.7494924      8.752498      -10.478126      14.075563      58.61208       52.741723      60.914632      1              188305.53      1.2746277      5972.1787      15122.257     -5527.7236      5.7409363     -1155.9774      24320.843     -19854.929      3309.9364      2.8          
      3000   10.038642      18881.447      630.15445      19511.601     -47.825053     -81.951812      13.993235     -75.516582      0.00059982007  0.0006        -0.00023899491 -0.00068989883  0.00059982007 -0.00023902347 -0.00069013692  0.97542149    -0.55800773     0.18855052     9.0667116     -9.7844955      10.006967      58.614423      52.716444      60.931844      1              188275.98      1.2748277      5947.5843      15120.681     -5499.173       5.0912151     -1155.0348      24317.45      -19855.151      3307.2633      3            
      3200   10.028216      18889.384      629.5          19518.884      32.877732      41.891101      67.008        -10.265906      0.00063979529  0.00064       -0.00020533599 -0.00033700515  0.00063979529 -0.00020535707 -0.00033706194  2.3694286      1.0734428     -0.70715193     2.7756652     -9.7865194      12.573601      58.616766      52.718218      60.953362      1              188356.34      1.2742838      5939.0392      15133.8       -5523.6208      4.8869915     -1121.1829      24311.452     -19854.991      3335.278       3.2          
      3400   10.022045      18877.797      629.1126       19506.909      34.079128     -154.41482      135.63481      121.01739      0.0006797689   0.00068       -0.00041682326 -0.00086008142  0.0006797689  -0.00041691015 -0.0008604515   2.3274445     -0.08393309     1.0458052      3.2903995     -7.4647836      11.956527      58.619109      52.707067      60.921468      1              188225.48      1.2751697      5968.1197      15108.825     -5529.0492      4.9972757     -1133.5235      24313.227     -19854.799      3324.9039      3.4          
      3600   9.9933134      18880.609      627.30905      19507.918     -89.913879     -107.81887     -43.821444     -118.10132      0.00071974092  0.00072        0.00035148513 -0.0001585071   0.00071974092  0.00035142337 -0.00015851967  5.614616      -1.0813419     -1.1732071      4.5143978     -10.037857      13.783925      58.621452      52.747579      60.964245      1              188509.96      1.2732454      5954.4243      15126.8       -5531.2644      5.7746277     -1152.2368      24331.681     -19854.569      3324.8749      3.6          
      3800   10.091032      18887.566      633.44311      19521.009      56.407485     -76.325452      46.693358      198.85455      0.00075971135  0.00076       -0.00018017156 -0.0009949067   0.00075971135 -0.00018018779 -0.00099540195  4.7613345     -0.17598887     0.69832866     4.2911576     -10.285357      11.20208       58.623795      52.719545      60.913247      1              188259.69      1.274938       5947.2071      15116.086     -5517.9428      3.0884742     -1130.9133      24324.183     -19854.143      3339.127       3.8          
      4000   10.003637      18882.545      627.95707      19510.502      109.94328      62.147842      296.73138     -29.049399      0.00079968017  0.0008        -0.00059652791 -0.00066316011  0.00079968017 -0.0005967059  -0.00066338009  5.4970994      0.8134948     -0.046752102    4.2372979     -9.0268093      11.320266      58.626139      52.697591      60.933475      1              188251.31      1.2749948      5959.7287      15125.575     -5527.5363      2.8263485     -1143.7906      24320.315     -19854.573      3321.9514      4            
      4200   10.034616      18879.68       629.90173      19509.581     -37.239163     -80.125809      13.076386     -44.668066      0.0008396474   0.00084       -0.00031237902 -0.00012920728  0.0008396474  -0.00031242782 -0.00012921563  8.1518093     -0.60903314    -0.02950601     5.8063515     -12.492783      11.692197      58.628482      52.712574      60.966032      1              188412.97      1.2739008      5969.7247      15124.706     -5549.1388      3.202446      -1135.3967      24321.159     -19854.577      3331.1849      4.2          
      4400   10.155405      18884.522      637.48399      19522.006     -221.90915     -209.20006     -169.23499     -287.2924       0.00087961303  0.00088       -0.00031052612 -0.00039054612  0.00087961303 -0.00031057434 -0.0003906224   1.2449207     -0.80831887    -0.89458387     3.6389587     -13.089695      14.497579      58.630825      52.712672      60.950097      1              188371.6       1.2741806      5948.9572      15123.232     -5512.0392      5.0296458     -1141.9514      24315.696     -19854.402      3319.3428      4.4          
      4600   9.968162       18884.875      625.73022      19510.605      106.11732      289.18477      76.836562     -47.669382      0.00091957706  0.00092        0.00012063423 -0.0005894998   0.00091957706  0.00012062695 -0.00058967362  7.6343981      0.73287938    -0.060212441    2.9213322     -10.832025      12.337334      58.633168      52.735406      60.937966      1              188422.87      1.2738339      5948.8113      15129.493     -5513.4079      3.7214534     -1140.1875      24311.237     -19854.793      3316.2566      4.6          
      4800   10.063823      18879.225      631.73515      19510.96       180.82397      43.807958      388.41049      110.25347      0.00095953949  0.00096       -2.2512241e-05 -0.0013666207   0.00095953949 -2.2512495e-05 -0.0013675554   4.6781914     -0.38585466     0.20959002     4.9804441     -7.3447591      13.203872      58.635511      52.727859      60.890582      1              188256.93      1.2749567      5984.0774      15115.592     -5545.8325      4.5755064     -1143.9763      24319.744     -19854.955      3320.8127      4.8          
      5000   10.007486      18879.683      628.19873      19507.882     -144.19402     -83.307704     -103.98194     -245.29242      0.00099950033  0.001          0.00051334862 -0.00097891496  0.00099950033  0.0005132169  -0.00097939441  7.7317299     -0.61000823     0.25057135     4.8728026     -12.664473      12.904462      58.637854      52.756114      60.914222      1              188438.47      1.2737284      5953.6813      15125.03      -5511.4072      4.13011       -1153.5119      24316.799     -19855.039      3308.2489      5            
      5200   10.031963      18881.24       629.73521      19510.975     -79.051912      17.050106     -116.72891     -137.47693      0.0010394596   0.00104        0.00025407827 -0.0014995954   0.0010394596   0.000254046   -0.001500721    4.3619768      0.55503154    -1.3807217      5.5674234     -12.096671      11.518964      58.640198      52.742443      60.882474      1              188298.98      1.274672       5942.9557      15113.086     -5521.5471      5.3466636     -1123.7301      24319.802     -19854.673      3341.3983      5.2          
      5400   10.097605      18883.544      633.85576      19517.4       -7.3799031     -50.797061      88.039157     -59.381806      0.0010794172   0.00108        0.00028229026 -0.0011639133   0.0010794172   0.00028225043 -0.0011645911   7.4598006      0.49536511     0.57925249     6.8499031     -10.204134      9.4131217      58.642541      52.74393       60.902942      1              188375.12      1.2741568      5950.9996      15114.921     -5512.9194      5.5877643     -1146.415       24326.27      -19854.9        3324.955       5.4          
      5600   9.9983213      18875.997      627.62341      19503.62       92.989645     -54.503109      239.57169      93.900354      0.0011193733   0.00112       -0.00022123996 -0.0006611331   0.0011193733  -0.00022126444 -0.00066135175  9.7214346     -0.10676864     2.1416685      4.2684209     -10.395118      10.046281      58.644884      52.71738       60.933598      1              188382.59      1.2741062      5964.9178      15103.158     -5520.0083      5.9225999     -1133.8782      24309.988     -19854.103      3322.0063      5.6          
      5800   10.088798      18881.241      633.30288      19514.544     -5.36883       -176.47766      102.6536       57.717567      0.0011593277   0.00116       -0.00029214148 -0.00027376841  0.0011593277  -0.00029218416 -0.00027380589  5.6442843     -0.68793476    -2.3086564      6.7986243     -10.298973      11.025347      58.647227      52.713641      60.957217      1              188449.78      1.273652       5971.2193      15114.257     -5527.1398      5.0638613     -1145.5158      24317.819     -19854.463      3317.8404      5.8          
      6000   9.9220516      18890.563      622.83574      19513.399     -24.722705     -11.36446      -81.480688      18.677034      0.0011992806   0.0012        -2.17533e-05   -0.00093934577  0.0011992806  -2.1753537e-05 -0.00093978723  12.003327     -0.38950739     1.2193167      3.5892843     -10.500406      9.6475922      58.64957       52.727899      60.916635      1              188382.78      1.274105       5975.6843      15112.563     -5526.8623      3.6840669     -1147.6621      24327.459     -19854.302      3325.4946      6            
      6200   9.9930662      18880.747      627.29353      19508.041     -0.64331513     105.56866     -56.260733     -51.237873      0.0012392318   0.00124       -0.00060852505 -0.00078996627  0.0012392318  -0.00060871028 -0.00079027845  6.0792848      0.6767055     -1.4125022      6.4343836     -7.5289849      11.56536       58.651913      52.696959      60.925743      1              188307.91      1.2746115      5961.8664      15125.54      -5528.2085      4.2933121     -1144.3122      24316.499     -19854.931      3317.2561      6.2          
      6400   10.084679      18883.95       633.04436      19516.994     -134.28449     -96.874662     -123.47693     -182.50188      0.0012791815   0.00128       -0.0004286977  -0.0010482528   0.0012791815  -0.00042878962 -0.0010488027   6.0792969     -0.64991025     0.1545004      6.6351134     -8.8516378      14.846222      58.654257      52.706441      60.909994      1              188300.63      1.2746608      5960.6464      15143.896     -5541.8209      5.149661      -1151.6817      24322.671     -19854.911      3316.0785      6.4          
      6600   10.033591      18883.769      629.83738      19513.606     -113.07856     -135.28751      28.09376      -232.04194      0.0013191296   0.00132        0.00029137743 -0.0007134158   0.0013191296   0.00029133499 -0.0007136704   9.5960269     -0.1247401      0.039290511    5.3427537     -8.0532255      14.612282      58.6566        52.74441       60.93041       1              188506.97      1.2732656      5945.5539      15126.15      -5509.5831      4.7001432     -1148.8498      24320.328     -19854.531      3316.9476      6.6          
      6800   9.9966879      18880.301      627.52088      19507.822      93.730224      26.829875      198.06366      56.297141      0.001359076    0.00136       -0.00012568646 -0.0010714079   0.001359076   -0.00012569436 -0.0010719822   8.4475568     -0.26528755     0.31674186     7.2429666     -12.172429      12.573713      58.658943      52.722418      60.908582      1              188368.4       1.2742023      5959.2096      15106.619     -5516.7892      4.7824227     -1138.9166      24319.832     -19854.437      3326.4791      6.8          
      7000   10.082324      18889.677      632.89651      19522.573     -16.566957     -3.213481       69.797587     -116.28498      0.0013990209   0.0014        -0.00031603874 -0.0008490652   0.0013990209  -0.00031608869 -0.00084942586  6.6600022      0.26070622    -0.99289001     4.4393674     -11.133622      13.434         58.661286      52.712381      60.922139      1              188381.98      1.2741104      5979.4168      15127.817     -5520.3426      5.147537      -1166.4192      24318.529     -19854.472      3297.6382      7            
      7200   10.092332      18881.922      633.52472      19515.447     -22.747651     -36.996864     -151.91622      120.67013      0.0014389642   0.00144       -0.00052300411 -0.0011380375   0.0014389642  -0.00052314092 -0.0011386855   9.9338236     -0.41813867     1.1062006      6.8308681     -11.9852        8.8420756      58.663629      52.701468      60.90452       1              188296.03      1.274692       5939.048       15130.6       -5509.0367      4.9578271     -1145.2486      24315.937     -19854.335      3316.3533      7.2          
      7400   9.9708181      18882.53       625.89695      19508.427     -190.85428     -125.47191     -156.94998     -290.14094      0.0014789059   0.00148       -0.00080185673 -0.00092342018  0.0014789059  -0.00080217839 -0.0009238468   8.113229       0.51897803    -1.0074861      6.7585081     -8.7413721      14.700624      58.665972      52.686764      60.917606      1              188291.46      1.2747229      5951.7038      15123.521     -5504.1706      4.1616681     -1158.9255      24321.015     -19854.776      3307.3137      7.4          
      7600   9.9905567      18892.404      627.136        19519.54      -137.81528     -468.26772      45.422638      9.3992544      0.001518846    0.00152       -0.00055829198 -0.00085480198  0.001518846   -0.00055844788 -0.00085516753  8.6751619     -1.3523305      0.37285315     5.2446331     -8.3815277      9.656614       58.668316      52.699607      60.92179       1              188357.82      1.2742738      5962.3933      15123.549     -5519.2267      5.0758096     -1140.6229      24315.896     -19854.661      3320.6123      7.6          
      7800   10.125661      18880.194      635.6169       19515.811     -123.75197     -376.29433     -77.69338       82.731789      0.0015587845   0.00156       -0.0010700366  -0.00012007773  0.0015587845  -0.0010706095  -0.00012008494  13.624616      1.3896604     -0.4817073      5.0681799     -10.225362      9.9446223      58.670659      52.672624      60.966589      1              188407.34      1.2739389      5943.6427      15130.748     -5505.7078      4.7298922     -1156.3617      24317.678     -19854.535      3306.7814      7.8          
      8000   10.016415      18881.243      628.75918      19510.003     -83.782836     -193.50491      18.561987     -76.405586      0.0015987214   0.0016        -0.0010257819  -0.00052173802  0.0015987214  -0.0010263083  -0.00052187418  5.3295725     -0.46491201     0.96047693     4.1676264     -10.574613      12.775652      58.673002      52.674957      60.942098      1              188347.52      1.2743435      5964.7741      15120.515     -5529.3744      3.4420682     -1147.2523      24324.109     -19854.97       3321.8864      8            
      8200   9.9563308      18881.512      624.98754      19506.499     -34.190567     -271.36203      1.2788341      167.51149      0.0016386567   0.00164       -0.0007864996  -0.0010019799   0.0016386567  -0.00078680906 -0.0010024822   10.340381     -0.31652432    -1.5161209      3.745672      -9.1800051      12.115267      58.675345      52.687574      60.912815      1              188309.63      1.2745999      5976.6864      15118.241     -5521.1476      5.0665346     -1161.05        24318.611     -19854.896      3302.6655      8.2          
      8400   9.977919       18887.846      626.3427       19514.188      104.02558     -56.596729      244.82251      123.85097      0.0016785904   0.00168       -0.00020496751 -0.0015129833   0.0016785904  -0.00020498852 -0.001514129    10.749596      0.21779822     0.88978968     4.4637499     -11.242737      11.725697      58.677688      52.718238      60.881658      1              188330.37      1.2744596      5959.5122      15136.782     -5525.2173      5.2502716     -1155.8663      24322.756     -19855.371      3311.5186      8.4          
      8600   9.9932833      18885.339      627.30716      19512.646     -61.803863     -144.14595      59.201331     -100.46697      0.0017185225   0.00172       -0.00046188014 -0.0014346677   0.0017185225  -0.00046198684 -0.0014356978   8.9293265     -1.112186      -0.98219392     4.4446765     -8.2938985      12.113246      58.680032      52.704691      60.886433      1              188304.26      1.2746363      5954.108       15136.244     -5524.4484      4.7870285     -1153.698       24323.559     -19855.213      3314.6482      8.6          
      8800   9.9771199      18881.45       626.29254      19507.742     -172.28034     -135.01669     -255.06563     -126.75869      0.001758453    0.00176        6.0665303e-05 -0.0015711327   0.001758453    6.0663463e-05 -0.0015723682   9.9747705      0.13988553     0.48042176     4.9285841     -8.2626168      11.539375      58.682375      52.732244      60.878112      1              188384.48      1.2740935      5944.4421      15123.129     -5516.0255      3.8198126     -1139.8403      24320.857     -19854.932      3326.0849      8.8          
      9000   9.9775865      18885.765      626.32183      19512.087     -5.0380808      67.538536     -140.13089      57.47811       0.0017983819   0.0018        -0.00040420869 -0.0009562609   0.0017983819  -0.00040429041 -0.00095671841  5.577713       0.69779553    -0.58041482     4.5724069     -11.629045      10.776854      58.684718      52.707732      60.915603      1              188420.39      1.2738507      5962.4872      15127.997     -5526.1323      4.7837123     -1144.7018      24316.2       -19854.868      3316.63        9            
      9200   9.9650712      18881.984      625.53621      19507.52      -179.57533     -328.04515     -72.65459      -138.02625      0.0018383093   0.00184       -0.00078706656 -3.0512346e-05  0.0018383093  -0.00078737646 -3.0512812e-05  10.127097     -0.13837662    -0.53385412     5.5543922     -10.690434      13.22239       58.687061      52.687544      60.97205       1              188530.28      1.2731082      5926.5118      15120.744     -5486.1954      4.5327989     -1149.8881      24321.11      -19854.831      3316.3907      9.2          
      9400   9.9291303      18885.793      623.28009      19509.073     -68.533194     -230.51534      12.902977      12.012779      0.001878235    0.00188       -0.00071381563 -0.00057056655  0.001878235   -0.00071407052 -0.00057072938  12.310802     -0.43962542     0.85382514     5.642815      -10.626041      11.604146      58.689404      52.691407      60.93912       1              188449.8       1.2736519      5954.5034      15126.991     -5526.14        4.9861563     -1139.3442      24319.349     -19854.552      3325.4531      9.4          
      9600   10.025839      18886.729      629.35079      19516.08      -11.999584     -218.70266      72.26958       110.43433      0.0019181592   0.00192       -0.00062687639 -0.00082846098  0.0019181592  -0.00062707296 -0.00082880434  11.736448     -0.68775321    -0.02635849     5.0848383     -9.6740967      10.749688      58.691747      52.695991      60.923396      1              188425.08      1.2738189      5963.6416      15117.067     -5511.0132      5.9439665     -1152.0903      24318.234     -19855.054      3311.0899      9.6          
      9800   9.9335761      18883.767      623.55917      19507.326      61.291745     -160.09098      120.8821       223.08412      0.0019580817   0.00196       -0.00066189867 -0.00081022253  0.0019580817  -0.00066211782 -0.00081055094  10.723118      0.90483137    -0.25287859     4.8490831     -13.046405      10.120765      58.694091      52.694144      60.924508      1              188429.44      1.2737895      5973.2551      15103.187     -5529.7196      5.9989817     -1138.3081      24324.341     -19854.988      3331.0453      9.8          
     10000   9.9648602      18878.176      625.52296      19503.699     -14.275147     -149.58847     -50.297447      157.06048      0.0019980027   0.002          0.00042947432 -0.0019922713   0.0019980027   0.00042938212 -0.0019942585   13.676566      0.14641609     0.24516336     3.4674601     -13.305077      12.385594      58.696434      52.751691      60.852434      1              188419.59      1.2738561      5970.6458      15115.877     -5535.3605      4.7750799     -1142.3776      24318.99      -19854.374      3322.2385      10           
     10200   10.010259      18884.686      628.3728       19513.059      21.303493     -99.608746      60.71351       102.80571      0.002037922    0.00204       -0.00051245768 -0.0017338971   0.002037922   -0.00051258903 -0.001735402    12.816066     -0.33275593    -2.6417434      7.1451619     -7.4418446      13.29507       58.698777      52.702024      60.868188      1              188298.44      1.2746757      5964.4906      15132.736     -5544.6472      4.1556383     -1130.6512      24313.569     -19854.967      3327.9513      10.2         
     10400   10.058124      18882.57       631.37739      19513.947      5.385127      -2.9922213      35.715499     -16.567897      0.0020778398   0.00208       -0.0004984377  -0.001421364    0.0020778398  -0.00049856196 -0.0014223751   11.176594     -0.2972168      2.9376114      5.7192623     -10.502039      9.7092853      58.70112       52.702763      60.887244      1              188367.55      1.274208       5971.195       15117.117     -5522.6182      5.2026305     -1151.3224      24317.734     -19854.739      3311.673       10.4         
     10600   9.848745       18884.475      618.23408      19502.709     -115.09618     -262.58694     -114.35192      31.650316      0.002117756    0.00212       -5.916923e-05  -0.0015426118   0.002117756   -5.917098e-05  -0.0015438029   8.4444193     -0.16590558    -0.61554427     5.9599073     -10.947922      11.759083      58.703463      52.725926      60.879851      1              188434.98      1.2737521      5940.2604      15122.783     -5527.9439      4.0934884     -1120.6919      24320.487     -19854.513      3345.2821      10.6         
     10800   10.015079      18885.74       628.67536      19514.416     -45.658791     -172.61218      60.979557     -25.343749      0.0021576706   0.00216       -0.00025627171 -0.001451568    0.0021576706  -0.00025630456 -0.0014526225   14.72019      -0.85819672    -1.493174       3.1059483     -8.7179833      11.379836      58.705806      52.715533      60.885402      1              188422.53      1.2738362      5964.6301      15136.246     -5534.2097      4.1775925     -1153.2673      24322.529     -19854.366      3314.8959      10.8         
     11000   9.9393402      18889.719      623.921        19513.64       140.25828      189.95978      160.13161      70.683439      0.0021975835   0.0022        -0.0001355247  -0.0014664327   0.0021975835  -0.00013553388 -0.001467509    11.206936      0.35325144     0.3022939      8.1487984     -9.9496339      13.964734      58.70815       52.721899      60.884496      1              188450.01      1.2736505      5946.4096      15138.363     -5538.9367      4.012035      -1128.125       24322.31      -19854.313      3339.8717      11           
     11200   9.9442045      18885.655      624.22634      19509.881     -126.06111     -206.00889     -230.29222      58.117791      0.0022374949   0.00224       -0.0003393569  -0.0019341091   0.0022374949  -0.00033941449 -0.0019359819   14.983086      0.14820716     0.35028889     5.0080621     -8.850771       10.906899      58.710493      52.711152      60.85598       1              188330.86      1.2744562      5969.9682      15134.732     -5537.3382      2.9667881     -1150.6787      24320.585     -19854.581      3315.326       11.2         
     11400   9.8872221      18884.395      620.6494       19505.044     -183.75793     -213.9127      -314.34958     -23.011513      0.0022774047   0.00228       -0.0010440818  -0.0015684387   0.0022774047  -0.0010446273  -0.00156967     9.3322676     -0.23686214    -1.0763955      7.6169666     -9.900783       14.697121      58.712836      52.673992      60.878276      1              188274.56      1.2748373      5942.1521      15107.73      -5495.3787      6.3131759     -1136.3847      24314.398     -19854.436      3323.5779      11.4         
     11600   10.100604      18880.688      634.04399      19514.732     -50.658986     -163.20924      69.156125     -57.923846      0.002317313    0.00232       -0.00084756223 -0.00055461396  0.002317313   -0.00084792162 -0.00055476782  15.068935     -0.4706273     -0.57611527     5.0406824     -9.655869       11.179232      58.715179      52.684354      60.940093      1              188510.34      1.2732429      5948.4169      15110.179     -5503.5022      4.4589302     -1148.2474      24324.053     -19854.671      3321.1355      11.6         
     11800   9.9929662      18883.464      627.28726      19510.751      13.123423     -105.16814      7.9846673      136.55374      0.0023572196   0.00236       -0.00116069    -0.0010834166   0.0023572196  -0.0011613641  -0.0010840039   14.733234     -0.94474994     1.2842092      3.9038296     -11.384281      11.650251      58.717522      52.667843      60.90785       1              188359.07      1.2742654      5957.5662      15117.45      -5519.0532      4.5032436     -1145.9031      24323.378     -19854.476      3322.9983      11.8         
     12000   9.9146535      18880.811      622.37134      19503.182     -74.059534     -132.88126      32.809615     -122.10696      0.0023971246   0.0024        -0.0012124423  -0.00084729776  0.0023971246  -0.0012131779  -0.00084765692  15.77396       1.7446461     -1.6228897      3.6787475     -7.359888       12.843662      58.719865      52.665115      60.922247      1              188401.34      1.2739794      5963.5776      15119.77      -5525.6285      5.5032901     -1150.1581      24322.346     -19854.599      3317.5884      12           
     12200   10.022718      18886.179      629.15487      19515.334      53.339507      112.43032     -20.2385        67.826698      0.002437028    0.00244       -0.0010941771  -0.00068990717  0.002437028   -0.0010947761  -0.00069014527  13.27528      -0.54274764     1.840762       5.5898564     -11.986332      11.779349      58.722209      52.671351      60.931844      1              188460.85      1.2735772      5963.9841      15123.227     -5535.4912      5.6930688     -1137.0873      24321.121     -19855.268      3328.7664      12.2         
     12400   10.001545      18883.943      627.82579      19511.769     -0.52233684    -249.64427     -67.395788      315.47305      0.0024769299   0.00248       -0.00077106897 -0.0011234145   0.0024769299  -0.0007713664  -0.001124046    13.308301     -0.26030133    -0.43196676     6.2951669     -9.2987076      9.1340506      58.724552      52.688388      60.905411      1              188447.55      1.2736671      5972.8405      15116.446     -5522.682       5.707242      -1154.5779      24320.004     -19853.796      3311.631       12.4         
     12600   9.8619293      18876.411      619.06169      19495.472      19.069928     -41.421367      146.02312     -47.39197       0.0025168301   0.00252       -0.0005899205  -0.00081362246  0.0025168301  -0.00059009458 -0.00081395363  14.672537     -0.51359928    -0.43482978     4.531752      -12.090766      13.789197      58.726895      52.69794       60.9243        1              188547.69      1.2729906      5976.7         15104.562     -5533.6405      4.4306798     -1130.2015      24308.708     -19854.148      3324.3589      12.6         
     12800   9.9636154      18880.939      625.44482      19506.383      166.41508     -55.744185      306.31292      248.6765       0.0025567288   0.00256       -0.00042354614 -0.0015744335   0.0025567288  -0.00042363586 -0.0015756742   12.3559        0.4826806     -0.81579957     4.7007141     -9.4509833      12.274325      58.729238      52.706712      60.877911      1              188443.01      1.2736978      5967.1645      15131.147     -5561.7166      5.2634928     -1121.3431      24315.568     -19855.144      3339.0803      12.8         
     13000   9.96459        18891.413      625.506        19516.919     -53.886908     -184.69279      114.26258     -91.230505      0.0025966258   0.0026        -0.00049607838 -0.0010636808   0.0025966258  -0.00049620147 -0.0010642469   13.31843      -0.71721396     0.37424771     5.5642226     -10.034563      17.345237      58.731581      52.702888      60.909053      1              188533.25      1.2730881      5970.9543      15122.559     -5518.1308      4.2530888     -1157.0148      24323.284     -19854.492      3311.7775      13           
     13200   9.8821668      18889.642      620.33206      19509.974     -107.57296     -115.97629     -102.41272     -104.32988      0.0026365213   0.00264       -0.00089338532 -0.0018345356   0.0026365213  -0.00089378463 -0.0018362204   12.067538      1.0450865      0.16870394     3.2833449     -11.649945      11.983617      58.733924      52.681938      60.862051      1              188320.39      1.2745271      5949.8768      15131.274     -5519.503       3.6636639     -1141.6635      24320.457     -19854.462      3324.3306      13.2         
     13400   9.9837684      18881.961      626.70988      19508.671     -213.80843     -309.00132     -283.75788     -48.666099      0.0026764152   0.00268       -0.0007906936  -0.0017215405   0.0026764152  -0.00079100637 -0.001723024    13.112915     -0.91935948    -1.3367471      4.8250396     -10.530395      8.9355263      58.736268      52.687353      60.868941      1              188368.58      1.274201       5963.5097      15107.17      -5521.0118      4.5649153     -1136.3736      24318.954     -19854.853      3327.7278      13.4         
     13600   10.012826      18891.693      628.53393      19520.226      72.584185     -97.505941      91.459686      223.79881      0.0027163075   0.00272       -0.00090615153 -0.0013894826   0.0027163075  -0.00090656233 -0.0013904489   17.411209      0.68606561     0.52472148     4.4633572     -13.622052      8.3149671      58.738611      52.681265      60.889188      1              188416.98      1.2738737      5950.8843      15132.724     -5531.2115      5.8750835     -1135.289       24323.692     -19854.983      3333.4207      13.6         
     13800   10.080318      18883.41       632.77061      19516.181     -10.897252     -347.78917      199.79296      115.30445      0.0027561982   0.00276       -0.0008996082  -0.0010303325   0.0027561982  -0.00090001309 -0.0010308637   13.412441     -0.70511229     0.13928017     2.3078076     -8.7059843      10.506542      58.740954      52.68161       60.911087      1              188493.5       1.2733566      5961.0929      15144.675     -5546.654       5.5984752     -1139.7372      24313.367     -19854.933      3318.6972      13.8         
     14000   9.9375061      18885.237      623.80587      19509.043     -151.35575     -339.80581     -102.38638     -11.875063      0.0027960873   0.0028        -0.00079396381 -0.0013743415   0.0027960873  -0.00079427917 -0.0013752868   16.359877      0.87105781     0.8790433      6.7963716     -10.476643      15.40982       58.743297      52.687181      60.890111      1              188456.03      1.2736097      5953.7945      15106.025     -5500.5639      5.8522082     -1146.5607      24320.844     -19854.154      3320.1297      14           
     14200   10.074636      18883.687      632.41393      19516.101     -44.674256     -151.10174      22.794764     -5.7157889      0.0028359748   0.00284       -0.00082779998 -0.0015874772   0.0028359748  -0.0008281428  -0.0015887386   18.511072     -1.2468983     -0.8576401      4.0876098     -11.516602      11.293057      58.74564       52.685396      60.877115      1              188416.95      1.273874       5950.2754      15112.852     -5508.2224      3.5501382     -1141.7196      24321.901     -19854.95       3325.2312      14.2         
     14400   9.9600974      18890.794      625.22399      19516.018     -44.282989     -218.37904     -70.39803       155.9281       0.0028758607   0.00288       -0.00082490728 -0.001781666    0.0028758607  -0.0008252477  -0.0017832551   10.962365      0.33637497    -0.52234291     3.6365493     -13.538718      10.08969       58.747983      52.685549      60.865275      1              188388.36      1.2740673      5947.2772      15125.122     -5503.4199      3.6556365     -1148.576       24321.282     -19854.547      3318.1592      14.4         
     14600   10.066637      18878.32       631.91177      19510.232     -54.678115     -130.76864     -54.859669      21.593969      0.0029157451   0.00292       -0.0010435526  -0.0013416532   0.0029157451  -0.0010440975  -0.001342554    15.546327     -0.086424285    1.3320595      6.5924848     -10.980243      11.718448      58.750327      52.67402       60.892104      1              188437.67      1.2737338      5949.9674      15102.284     -5512.9039      4.5624541     -1127.6059      24316.7       -19854.684      3334.4099      14.6         
     14800   10.009161      18888.71       628.30383      19517.013      16.122317     -133.23658     -49.167555      230.77108      0.0029556278   0.00296       -0.00090852537 -0.0013604943   0.0029556278  -0.00090893833 -0.0013614207   15.181799     -0.081783931   -0.7052689      3.1886921     -7.8841675      10.516458      58.75267       52.68114       60.890955      1              188467.1       1.2735349      5951.2838      15133.319     -5518.5135      4.7414364     -1149.3094      24321.401     -19854.213      3317.8789      14.8         
     15000   10.098969      18886.09       633.94138      19520.031     -103.13691     -351.59545      29.877715      12.30701       0.002995509    0.003         -0.0014547896  -0.00084432339  0.002995509   -0.0014558489  -0.00084468003  21.787522      0.17246264    -1.3416836      5.5069293     -9.0872277      11.201077      58.755013      52.652336      60.922428      1              188468.93      1.2735226      5977.9319      15100.281     -5509.9806      5.2087486     -1155.5119      24322.784     -19854.622      3312.6494      15           
     15200   9.8934704      18887.525      621.04162      19508.567     -34.324025      139.02524      42.719997     -284.71731      0.0030353885   0.00304       -0.0017876182  -0.00053580775  0.0030353885  -0.0017892179  -0.00053595135  12.792075     -0.099345447    1.3331433      5.3984472     -7.0904702      10.947949      58.757356      52.634786      60.94124       1              188471.81      1.2735031      5948.8609      15133.217     -5517.0322      5.6968756     -1140.9244      24311.707     -19854          3316.7823      15.2         
     15400   10.00157       18888.336      627.82737      19516.163      23.389335      48.039966      42.603572     -20.475534      0.0030752665   0.00308       -0.00093618159 -0.0020230199   0.0030752665  -0.00093662008 -0.002025069    16.796528     -0.4274886      0.10101345     4.0437879     -9.8963786      9.4066178      58.759699      52.679682      60.850559      1              188359.39      1.2742632      5956.7777      15142.704     -5540.2144      5.5350075     -1146.1429      24324.337     -19854.66       3323.5339      15.4         
     15600   10.053652      18889.944      631.0967       19521.04      -238.87798     -243.9286      -244.72145     -227.98389      0.0031151429   0.00312       -0.00058223993 -0.0015635761   0.0031151429  -0.0005824095  -0.0015647997   16.395166     -0.50507367     0.67422716     8.9477942     -11.294777      12.112363      58.762042      52.698345      60.878573      1              188520.39      1.273175       5943.765       15139.889     -5511.8828      5.0210192     -1157.2201      24325.505     -19855.134      3313.1509      15.6         
     15800   9.9586909      18880.88       625.1357       19506.016     -175.62837     -251.9903      -79.954265     -194.94055      0.0031550177   0.00316       -0.001430737   -0.0014540413   0.0031550177  -0.0014317614  -0.0014550995   16.646055      0.093318451   -0.5832471      7.6600169     -10.969868      11.419403      58.764386      52.653604      60.885252      1              188388.51      1.2740662      5954.4478      15134.535     -5532.9105      3.9180955     -1148.8227      24324.284     -19854.572      3320.8897      15.8         
     16000   10.046216      18883.026      630.62993      19513.656      18.063707     -133.32837      189.44835     -1.9288551      0.0031948909   0.0032        -0.001379294   -0.0017413252   0.0031948909  -0.0013802461  -0.001742843    17.295468      1.0551902     -1.1463937      2.374401      -7.6708195      14.595995      58.766729      52.656317      60.867735      1              188351.52      1.2743164      5960.8428      15124.736     -5526.2565      5.5046052     -1146.1742      24319.409     -19855.036      3318.1993      16           
     16200   10.024396      18889.517      629.26022      19518.777     -176.00994     -305.62303     -246.99684      24.590056      0.0032347625   0.00324       -0.00090955627 -0.0011261134   0.0032347625  -0.00090997017 -0.0011267479   12.616975     -1.2090382      0.35719912     4.073712      -10.82769       9.3286149      58.769072      52.681086      60.905247      1              188563.77      1.2728821      5956.6441      15123.368     -5519.4559      6.5343262     -1151.7918      24328.939     -19854.721      3322.4261      16.2         
     16400   9.9458844      18881.747      624.3318       19506.079     -61.917466     -304.37298      162.54895     -43.928375      0.0032746325   0.00328       -0.0010919754  -0.0017747522   0.0032746325  -0.001092572   -0.001776329    17.517635      0.054199839    0.0030777473   4.5707798     -10.77901       11.843394      58.771415      52.671467      60.865697      1              188414.43      1.273891       5954.0821      15126.189     -5526.806       5.1705238     -1142.4646      24319.968     -19854.392      3323.1113      16.4         
     16600   10.013317      18887.475      628.56476      19516.039      88.098271     -197.41116      335.58568      126.12029      0.003314501    0.00332       -0.00071177061 -0.0017668577   0.003314501   -0.00071202404 -0.0017684204   18.538116     -0.68262501    -0.654745       2.6246453     -12.155345      8.9542513      58.773758      52.691515      60.866178      1              188495.15      1.2733455      5959.3319      15119.033     -5530.4681      5.2461544     -1130.2568      24319.02      -19854.432      3334.3319      16.6         
     16800   10.072485      18884.087      632.27888      19516.366     -29.863074     -163.44125     -0.26265589     74.114685      0.0033543678   0.00336       -0.0011775497  -0.0017344665   0.0033543678  -0.0011782436  -0.0017359725   20.358673      0.95316699    -0.013325812    3.3709595     -11.839909      13.409188      58.776102      52.666954      60.868153      1              188420.91      1.2738471      5970.1796      15133.229     -5529.8873      2.3189957     -1157.6886      24320.476     -19854.541      3308.2468      16.8         
     17000   9.9287168      18889.083      623.25414      19512.337     -81.306674     -265.2349       110.79645     -89.481574      0.0033942331   0.0034        -0.00039841713 -0.001721875    0.0033942331  -0.00039849652 -0.0017233591   19.467661     -0.45540664     0.67660141     5.9823824     -8.8353589      10.702646      58.778445      52.708037      60.868921      1              188577.79      1.2727874      5963.3443      15124.394     -5523.1141      5.5306452     -1144.9574      24318.115     -19854.23       3318.9281      17           
     17200   9.9918529      18883.723      627.21737      19510.941      113.62004      48.753102      159.34485      132.76216      0.0034340967   0.00344       -0.00075982692 -0.0017406738   0.0034340967  -0.00076011573 -0.0017421906   15.823272     -0.72286741    -1.0493339      7.4781408     -8.6112818      13.04467       58.780788      52.688981      60.867774      1              188513.57      1.273221       5963.1307      15123.86      -5536.927       4.8291709     -1133.7425      24317.323     -19854.749      3328.8311      17.2         
     17400   10.09973       18888.869      633.98912      19522.858      149.6805       132.19095      200.34803      116.50251      0.0034739588   0.00348       -0.0013034342  -0.0016109812   0.0034739588  -0.0013042844  -0.0016122803   16.473323      0.41544063    -0.22789125     6.9372717     -11.921938      12.499703      58.783131      52.660317      60.875682      1              188443.01      1.2736978      5962.8435      15137.641     -5544.1926      4.7772104     -1132.8298      24315.222     -19854.592      3327.7997      17.4         
     17600   10.009572      18882.573      628.32966      19510.903     -171.63707     -346.49193     -38.080892     -130.3384       0.0035138193   0.00352       -0.0014094112  -0.0011243322   0.0035138193  -0.0014104053  -0.0011249647   16.361917     -0.56717926     1.3065212      5.1609235     -8.3688326      11.509781      58.785474      52.654729      60.905355      1              188522.37      1.2731616      5953.7177      15126.715     -5512.0994      3.248704      -1158.6863      24324.035     -19854.357      3310.9915      17.6         
     17800   10.041346      18881.376      630.32419      19511.7       -165.55135     -343.45422      62.759903     -215.95972      0.0035536782   0.00356       -0.0017255523  -0.00076706569  0.0035536782  -0.0017270428  -0.00076736004  19.687788     -0.97435215    -0.94957477     4.4039588     -8.1274865      12.992894      58.787817      52.638059      60.927139      1              188537.61      1.2730587      5943.3526      15129.986     -5546.1978      5.7100091     -1112.6363      24315.579     -19854.418      3348.5247      17.8         
     18000   10.160081      18888.021      637.77756      19525.799     -25.278319     -89.898969     -156.68345      170.74746      0.0035935355   0.0036        -0.0013711186  -0.0011429291   0.0035935355  -0.0013720594  -0.0011435828   21.174635      1.112392      -0.5361916      3.3200926     -10.408904      12.117749      58.790161      52.656748      60.904221      1              188541.12      1.273035       5967.7111      15127.765     -5528.0721      4.6901397     -1151.8993      24322.006     -19854.179      3315.9276      18           
     18200   9.969495       18888.955      625.8139       19514.769     -23.005912     -142.5304       100.87195     -27.359292      0.0036333912   0.00364       -0.0009088691  -0.0018730559   0.0036333912  -0.00090928237 -0.0018748123   21.194266     -0.9068444      0.40613324     4.2973411     -9.7917277      8.4238823      58.792504      52.681122      60.859703      1              188498.02      1.273326       5959.5375      15109.314     -5511.1398      4.4148287     -1145.7713      24326.277     -19853.677      3326.8284      18.2         
     18400   9.974347       18880.77       626.11848      19506.889     -158.28676     -385.62575     -57.486023     -31.74852       0.0036732454   0.00368       -0.00088725898 -0.002085534    0.0036732454  -0.00088765283 -0.0020877118   18.680192      0.74585358    -0.37950392     5.9549385     -11.071768      10.323448      58.794847      52.682261      60.846747      1              188469.48      1.2735189      5958.8448      15100.272     -5495.2945      5.4694163     -1160.2359      24326.281     -19854.566      3311.4787      18.4         
     18600   9.9935695      18888.58       627.32513      19515.905      41.706864     -233.16185      300.71293      57.569506      0.0037130979   0.00372       -0.001535106   -0.0017949938   0.0037130979  -0.0015362855  -0.0017966067   20.078618     -0.22757473     0.28335235     4.0674599     -10.580359      11.572684      58.79719       52.648101      60.864462      1              188409.62      1.2739235      5938.3788      15134.602     -5532.2939      4.2396843     -1123.7939      24321.545     -19854.097      3343.6533      18.6         
     18800   9.9958519      18885.791      627.4684       19513.259     -142.32516     -275.82487      50.258811     -201.40941      0.0037529489   0.00376       -0.00081085149 -0.0019706456   0.0037529489  -0.0008111804  -0.0019725899   19.00079       0.12883756    -0.52184283     5.8810675     -9.1514392      11.56124       58.799533      52.68629       60.853752      1              188520.62      1.2731734      5957.5682      15130.268     -5528.8761      3.9624469     -1144.7637      24322.416     -19854.784      3322.8684      18.8         
     19000   9.9727073      18881.646      626.01555      19507.661      32.21958       56.844551      211.35268     -171.53849      0.0037927982   0.0038        -0.001390952   -0.0014584374   0.0037927982  -0.0013919203  -0.001459502    20.523523     -0.68255878     0.18684109     4.4831773     -11.655269      9.9139111      58.801876      52.655702      60.884984      1              188515.38      1.2732088      5960.6588      15114.581     -5523.0593      5.4566268     -1136.2709      24314.819     -19854.54       3324.0085      19           
     19200   10.050055      18885.144      630.87089      19516.015     -47.190314     -252.17057      144.86022     -34.260599      0.003832646    0.00384       -0.0015830042  -0.0013854258   0.003832646   -0.0015842585  -0.0013863864   19.608435     -0.34330429     0.5199664      3.7214525     -12.356956      14.980068      58.80422       52.645575      60.889435      1              188500.42      1.2733099      5955.4222      15118.256     -5514.6798      3.5352107     -1146.3411      24323.36      -19854.408      3322.61        19.2         
     19400   9.9660984      18881.383      625.60069      19506.984      100.57812      6.5246099      312.8367      -17.626951      0.0038724922   0.00388       -0.00074412305 -0.002164314    0.0038724922  -0.00074440005 -0.0021666595   22.509802      0.23787892    -0.78918744     6.5424468     -8.6894164      11.921267      58.806563      52.689809      60.841943      1              188519.16      1.2731833      5969.8197      15113.434     -5523.5394      5.9705757     -1149.3866      24319.518     -19854.433      3315.6981      19.4         
     19600   9.9815058      18881.285      626.56785      19507.853      53.533123     -91.159485     -37.042831      288.80169      0.0039123368   0.00392       -0.00080005207 -0.0019512821   0.0039123368  -0.00080037228 -0.0019531884   22.439493     -0.2973733      0.22384857     6.4710373     -10.169721      12.798523      58.808906      52.68686       60.854933      1              188556.37      1.272932       5964.7293      15135.712     -5541.0473      4.7441413     -1146.0413      24317.563     -19854.374      3317.1474      19.6         
     19800   10.022276      18886.982      629.12713      19516.109     -77.568109     -73.629337     -42.886603     -116.18839      0.0039521798   0.00396       -0.0014162291  -0.0011443363   0.0039521798  -0.0014172329  -0.0011449915   24.542988      1.8581449     -0.30569496     2.9817538     -9.2971492      10.304118      58.811249      52.654369      60.904135      1              188599.96      1.2726378      5961.2546      15119.012     -5531.2798      5.6855673     -1139.0611      24325.991     -19854.62       3332.31        19.8         
     20000   10.103028      18884.568      634.19616      19518.764     -8.5645735     -231.40847     -33.571018      239.28576      0.0039920213   0.004         -0.0014102047  -0.0019423746   0.0039920213  -0.0014112     -0.0019442634   19.471867     -1.2159341     -1.0154362      5.0415602     -8.0059062      13.094052      58.813592      52.654687      60.855476      1              188457.92      1.273597       5962.4646      15134.258     -5541.8638      3.9981262     -1143.8285      24324.362     -19854.823      3325.7109      20           
     20200   10.014095      18884.519      628.6136       19513.132      19.13457      -82.092495      99.749197      39.747008      0.0040318611   0.00404       -0.0017024802  -0.001592171    0.0040318611  -0.001703931   -0.0015934399   24.28847      -0.41818498     0.4722988      3.904159      -11.399948      12.985451      58.815935      52.639275      60.876829      1              188476.38      1.2734722      5977.9666      15130.087     -5543.0086      5.065573      -1150.3241      24319.626     -19854.894      3314.4078      20.2         
     20400   9.9486745      18884.606      624.50694      19509.113     -56.722664     -224.41486      22.578102      31.668762      0.0040716994   0.00408       -0.0011410111  -0.0019409351   0.0040716994  -0.0011416625  -0.0019428211   19.504568     -0.32217363     0.77168877     6.7537217     -7.5775395      12.146483      58.818279      52.668881      60.855564      1              188524.02      1.2731504      5957.115       15125.11      -5532.1454      5.1535157     -1136.492       24320.628     -19854.763      3329.3727      20.4         
     20600   10.079344      18889.233      632.70947      19521.942     -65.583529     -341.32904     -1.0640295      145.64248      0.004111536    0.00412       -0.0013012585  -0.0018579084   0.004111536   -0.0013021059  -0.0018596364   19.488589     -0.25377987    -1.1368439      6.2384067     -8.9082005      10.712409      58.820622      52.660431      60.860626      1              188516.97      1.2731981      5958.6559      15119.022     -5500.6578      4.2044598     -1147.3933      24310.03      -19854.629      3308.0082      20.6         
     20800   10.009034      18886.476      628.29587      19514.772     -154.47283     -212.4801      -210.54598     -40.392414      0.0041513711   0.00416       -0.0010552828  -0.0018428782   0.0041513711  -0.00105584    -0.0018445784   23.984485      0.37319774    -0.0044256269   6.6851059     -8.0981962      10.880033      58.822965      52.673402      60.861543      1              188573.75      1.2728147      5946.2936      15107.695     -5516.6869      4.6871954     -1123.9977      24322.884     -19854.399      3344.4873      20.8         
     21000   9.9777427      18885.375      626.33164      19511.707     -211.13683     -491.89777     -68.399375     -73.113349      0.0041912046   0.0042        -0.001168235   -0.0017719404   0.0041912046  -0.0011689179  -0.0017735122   19.681453      0.088214004    0.55829626     4.8805347     -12.432865      8.0855088      58.825308      52.667446      60.865868      1              188573.34      1.2728175      5956.002       15127.64      -5508.9989      4.2794145     -1158.5066      24319.212     -19854.252      3306.4533      21           
     21200   10.093612      18891.062      633.60505      19524.667     -58.915916     -152.34503     -40.847241      16.44452       0.0042310365   0.00424       -0.0011066873  -0.0023122354   0.0042310365  -0.0011073001  -0.0023149127   23.831334     -0.83294659    -0.94036413     5.7182093     -10.517719      10.181789      58.827651      52.670691      60.832924      1              188490.39      1.2733776      5980.1244      15123.393     -5548.4679      4.9433221     -1140.0057      24325.4       -19854.326      3331.0688      21.2         
     21400   9.9971399      18886.444      627.54925      19513.993     -134.6542      -265.23873     -25.328479     -113.39539      0.0042708669   0.00428       -0.0014292859  -0.0017403743   0.0042708669  -0.0014303083  -0.0017418905   23.937256      0.34057889    -0.056455058    3.9191971     -12.377072      14.944089      58.829994      52.653681      60.867793      1              188545.03      1.2730086      5944.9033      15122.54      -5504.3378      5.5401367     -1152.6783      24324.758     -19854.281      3317.798       21.4         
     21600   10.000275      18884.762      627.74602      19512.508     -186.53839     -325.45155      29.989099     -264.15272      0.0043106956   0.00432       -0.0012310155  -0.0021646232   0.0043106956  -0.0012317738  -0.0021669694   22.506293      0.062653677    0.024649642    5.0219334     -9.5146616      13.516215      58.832338      52.664135      60.841925      1              188509.83      1.2732463      5955.1803      15125.114     -5511.9757      2.9660041     -1153.7829      24322.341     -19855.081      3313.4774      21.6         
     21800   9.9873328      18887.779      626.93363      19514.713     -42.825664     -295.8085       182.46288     -15.131372      0.0043505227   0.00436       -0.0015051793  -0.0019685183   0.0043505227  -0.0015063132  -0.0019704584   21.99662      -0.15488371     0.11615683     5.5409249     -10.801083      11.442604      58.834681      52.649679      60.853882      1              188502.63      1.2732949      5963.562       15122.064     -5533.1544      3.1934454     -1134.0154      24320.532     -19854.403      3332.114       21.8         
     22000   9.9815277      18888.977      626.56923      19515.546     -156.726       -471.28697      168.07895     -166.96997      0.0043903483   0.0044        -0.00091044039 -0.0018300387   0.0043903483  -0.0009108551  -0.0018317153   21.821718     -0.96348145    -0.053315684    3.8655202     -9.8182258      10.154679      58.837024      52.681039      60.862326      1              188648.59      1.2723097      5957.7642      15141.059     -5524.4759      4.3136799     -1150.1683      24315.536     -19855.052      3310.3157      22           
     22200   9.9860568      18880.043      626.85354      19506.897     -86.700849     -333.70169     -57.633486      131.23263      0.0044301723   0.00444       -0.0013761364  -0.0021866418   0.0044301723  -0.0013770841  -0.002189036    20.819214      1.2288866      0.51002115     5.6202988     -9.5500331      11.901515      58.839367      52.656483      60.840582      1              188500.8       1.2733073      5974.0576      15146.33      -5563.1718      3.4264152     -1138.5363      24312.641     -19854.704      3319.4011      22.2         
     22400   10.019557      18890.553      628.95645      19519.509      114.84839     -128.3184       171.76708      301.09649      0.0044699947   0.00448       -0.0017774582  -0.0022580736   0.0044699947  -0.0017790397  -0.0022606269   28.185204     -1.2135805     -1.3196687      6.3064654     -12.007384      12.863165      58.84171       52.635322      60.836227      1              188419.06      1.2738596      5952.0222      15127.554     -5528.9023      3.2867917     -1126.0827      24317.142     -19854.467      3336.5922      22.4         
     22600   9.9963637      18886.764      627.50053      19514.265      36.423599     -26.209503     -59.498703      194.979        0.0045098155   0.00452       -0.0019990546  -0.0014683368   0.0045098155  -0.0020010554  -0.0014694159   23.551642      0.25846027    -0.064255365    4.0022872     -9.1299437      13.468596      58.844053      52.623637      60.88438       1              188533.85      1.2730841      5961.642       15111.046     -5530.3101      4.7738976     -1131.7499      24326.147     -19854.786      3339.6119      22.6         
     22800   9.9234344      18883.518      622.92255      19506.441     -84.016126     -206.97896     -69.897056      24.82764       0.0045496347   0.00456       -0.0021725151  -0.0010836367   0.0045496347  -0.0021748785  -0.0010842243   25.33365       0.096642906    0.052733255    6.6118027     -8.9523762      11.604097      58.846397      52.614491      60.907837      1              188581.21      1.2727643      5946.0155      15114.608     -5525.5322      5.7872522     -1123.0615      24319.747     -19854.046      3342.6395      22.8         
     23000   10.082705      18887.459      632.92045      19520.379     -123.57708     -311.24407     -69.948484      10.461319      0.0045894523   0.0046        -0.0024316727  -0.0013278049   0.0045894523  -0.002434634   -0.0013286872   21.726563     -0.88903428     0.90107755     5.0330482     -10.713549      8.5348152      58.84874       52.600826      60.892949      1              188493.65      1.2733555      5964.3516      15127.459     -5526.7986      4.6872326     -1146.2812      24318.569     -19854.529      3317.7595      23           
     23200   9.958296       18884.219      625.11091      19509.33      -358.14192     -604.08791     -181.85567     -288.48218      0.0046292684   0.00464       -0.0015828501  -0.0015164327   0.0046292684  -0.0015841041  -0.0015175837   26.218741      0.83953195    -0.98264463     5.4092128     -11.74179       12.164955      58.851083      52.645583      60.881447      1              188625.92      1.2724627      5975.5417      15121.102     -5514.1221      5.5666389     -1169.3203      24320.06      -19854.609      3296.1311      23.2         
     23400   10.00029       18888.152      627.747        19515.899     -71.745293     -252.77992     -21.49872       59.042763      0.0046690828   0.00468       -0.0017464202  -0.0020758592   0.0046690828  -0.001747947   -0.0020780168   27.534918     -0.8832122      0.70925905     3.8777861     -11.706015      11.550923      58.853426      52.636958      60.847337      1              188496.86      1.2733339      5952.5407      15126.838     -5513.0904      4.4586251     -1147.7916      24319.788     -19854.592      3317.4046      23.4         
     23600   10.05857       18885.859      631.4054       19517.264     -190.71137     -203.50142      1.2735227     -369.90623      0.0047088957   0.00472       -0.00090202769 -0.0023554994   0.0047088957  -0.00090243476 -0.002358278    25.684599      0.65927634    -0.37660006     6.9327576     -8.4040617      11.292651      58.855769      52.681482      60.830286      1              188610.94      1.2725637      5962.5481      15117.748     -5517.1706      3.3367526     -1149.81        24323.902     -19854.695      3319.3965      23.6         
     23800   9.9746473      18881.895      626.13733      19508.033     -29.734949     -228.28555      66.259367      72.821335      0.004748707    0.00476       -0.0016294587  -0.0016787914   0.004748707   -0.0016307877  -0.0016802021   26.308592     -1.0328584      0.009776917    7.5381299     -9.275675       10.646679      58.858112      52.643126      60.871548      1              188608.97      1.272577       5955.1913      15136.807     -5539.0292      4.9952168     -1141.4031      24320.045     -19854.711      3323.931       23.8         
     24000   10.047977      18887.847      630.74044      19518.587      16.916766     -136.68353     -66.804676      254.2385       0.0047885167   0.0048        -0.001708461   -0.0016135715   0.0047885167  -0.0017099221  -0.0016148747   25.099825      0.57038947    -0.15759026     5.3122365     -11.284948      10.812174      58.860456      52.63896       60.875524      1              188613.87      1.2725439      5964.0759      15124.114     -5529.1829      5.0738372     -1143.6019      24322.487     -19855.119      3323.7663      24           
     24200   9.9581037      18885.56       625.09884      19510.659     -170.55662     -284.60448     -58.424982     -168.64038      0.0048283249   0.00484       -0.0022153215  -0.0018348472   0.0048283249  -0.0022177789  -0.0018365326   28.845348     -0.10074396    -0.085277202    4.4385543     -11.377725      11.096847      58.862799      52.612234      60.862032      1              188483.83      1.2734219      5945.3353      15113.998     -5508.2151      4.6421216     -1144.2017      24328.612     -19854.61       3329.7997      24.2         
     24400   9.9067462      18885.768      621.87498      19507.643     -152.36228     -355.35556     -148.15941      46.428136      0.0048681314   0.00488       -0.0013970922  -0.0024260153   0.0048681314  -0.001398069   -0.0024289629   21.227777      0.20547361    -0.011428373    6.2008139     -8.6934231      11.497143      58.865142      52.655378      60.825986      1              188534.18      1.2730818      5970.0031      15130.391     -5530.8581      4.0963894     -1152.0487      24318.034     -19853.85       3312.1352      24.4         
     24600   9.9856893      18888.997      626.83046      19515.828     -69.545379     -203.11555      106.09356     -111.61415      0.0049079364   0.00492       -0.0017967343  -0.0020200381   0.0049079364  -0.0017983503  -0.0020220811   25.864757     -0.73590744    -0.4284809      4.4009484     -12.152033      11.574607      58.867485      52.634305      60.850741      1              188542.93      1.2730228      5960.0955      15125.75      -5512.3435      2.7035847     -1148.2797      24315.349     -19854.278      3312.7918      24.6         
     24800   9.9681372      18887.597      625.72867      19513.326     -70.813499     -254.47007      18.825603      23.20397       0.0049477397   0.00496       -0.001400255   -0.0020289482   0.0049477397  -0.0014012362  -0.0020310093   27.279141     -0.46908518    -0.69638228     6.3785118     -9.2257615      12.215073      58.869828      52.655211      60.850197      1              188623.64      1.272478       5960.5458      15114.38      -5509.6374      3.7291942     -1141.0816      24314.469     -19854.807      3318.5796      24.8         
     25000   10.078155      18890.172      632.63481      19522.807     -104.92471     -138.4911      -124.85737     -51.425659      0.0049875415   0.005         -0.0011423371  -0.0022111385   0.0049875415  -0.0011429901  -0.0022135867   25.841268      1.1367514      0.64290547     8.2286991     -9.9231363      11.587813      58.872172      52.668811      60.839088      1              188645.42      1.2723311      5961.2569      15120.626     -5527.2168      3.7036019     -1129.6179      24315.644     -19854.224      3331.8022      25           
     25200   10.038753      18886.268      630.16144      19516.429     -165.56942     -141.70798     -197.9474      -157.05289      0.0050273417   0.00504       -0.0016743215  -0.00231466     0.0050273417  -0.0016757247  -0.002317343    28.594687      0.03629563    -0.054277804    3.3133556     -8.1722889      11.694119      58.874515      52.64076       60.832776      1              188532.89      1.2730905      5974.3418      15130.797     -5543.1829      3.2315729     -1151.2543      24326.257     -19853.923      3321.0803      25.2         
     25400   9.973221       18884.03       626.0478       19510.078     -160.80318     -399.01905      11.322955     -94.713437      0.0050671403   0.00508       -0.0020075901  -0.0017796531   0.0050671403  -0.002009608   -0.0017812386   28.305074     -0.28633301    -1.259468       4.9465897     -9.0464682      11.484391      58.876858      52.623187      60.865398      1              188578.53      1.2727825      5951.5017      15126.997     -5512.9428      2.0157227     -1157.3516      24328.748     -19854.938      3316.4585      25.4         
     25600   10.018898      18886.642      628.91506      19515.557      95.768792      33.357471      77.873102      176.0758       0.0051069374   0.00512       -0.0021983651  -0.0022853231   0.0051069374  -0.002200785   -0.0022879384   26.977749     -1.5738706     -0.059668732    5.6623489     -10.098535      11.626574      58.879201      52.613128      60.834565      1              188454.47      1.2736203      5953.1557      15142.71      -5536.1833      5.1371625     -1140.2933      24316.507     -19854.392      3321.8221      25.6         
     25800   10.026303      18887.551      629.37993      19516.931     -32.667465     -102.94564     -43.262173      48.205423      0.0051467328   0.00516       -0.0020796408  -0.0020938811   0.0051467328  -0.0020818063  -0.0020960764   24.406063     -0.036805601   -0.065842387    0.75840499    -9.8037817      13.375849      58.881544      52.619388      60.846238      1              188520.56      1.2731738      5970.4469      15126.453     -5528.4165      4.9035211     -1155.0511      24323.258     -19854.043      3314.1644      25.8         
     26000   9.9911797      18884.325      627.17511      19511.501     -92.199716     -288.00522      15.402524     -3.9964511      0.0051865267   0.0052        -0.0016203181  -0.0021111696   0.0051865267  -0.0016216322  -0.0021134013   31.313212      0.95663285     1.7439521      7.7189993     -12.273109      11.660057      58.883887      52.643608      60.845184      1              188611.57      1.2725595      5937.1742      15125.084     -5500.2194      2.7976707     -1152.6544      24327.065     -19854.921      3319.4894      26           
     26200   9.9783479      18888.8        626.36962      19515.169     -123.95513     -181.4858       98.245118     -288.62472      0.005226319    0.00524       -0.0019275346  -0.002651469    0.005226319   -0.0019293947  -0.0026549904   25.741366      0.0090613937  -1.8237081      6.4107346     -11.941399      12.947485      58.886231      52.627408      60.81224       1              188458.94      1.2735901      5957.6234      15132.69      -5524.8261      3.8840522     -1142.7013      24316.275     -19854.146      3319.4285      26.2         
     26400   10.155481      18890.032      637.4888       19527.521     -217.92061     -306.11482     -87.762167     -259.88485      0.0052661097   0.00528       -0.0014070158  -0.0023581598   0.0052661097  -0.0014080066  -0.0023609446   28.134178     -1.0738222      0.52594626     4.254401      -12.000875      10.585622      58.888574      52.654855      60.830124      1              188620.18      1.2725014      5968.7315      15129.979     -5510.4691      5.3959038     -1170.745       24321.604     -19854.464      3296.3947      26.4         
     26600   9.9860102      18886.633      626.85061      19513.484     -92.966763     -263.77322      124.08786     -139.21492      0.0053058988   0.00532       -0.0022985315  -0.0022629733   0.0053058988  -0.0023011772  -0.0022655377   25.84937       1.7414431     -0.48282611     3.1009053     -11.797879      11.314314      58.890917      52.607846      60.835928      1              188477.27      1.2734663      5960.5239      15126.104     -5515.1429      3.1624922     -1151.3926      24318.211     -19854.832      3311.986       26.6         
     26800   9.9678153      18884.567      625.70846      19510.276     -151.54314     -418.28897     -27.840507     -8.4999366      0.0053456863   0.00536       -0.0018718335  -0.0018915561   0.0053456863  -0.0018735876  -0.0018933473   29.668478     -1.682947       1.1897909      3.3346305     -8.8992229      8.8025721      58.89326       52.630346      60.858575      1              188635.57      1.2723976      5941.3412      15141.059     -5525.3676      5.535057      -1148.3324      24325.411     -19855.079      3321.9997      26.8         
     27000   10.047162      18891.046      630.68928      19521.735     -280.49997     -503.66661     -171.64395     -166.18935      0.0053854723   0.0054        -0.0018699882  -0.0023327879   0.0053854723  -0.0018717388  -0.002335513    23.167781      0.14990237    -0.22418365     8.2252696     -9.8667559      8.8617624      58.895603      52.630443      60.831671      1              188560.03      1.2729073      5963.5634      15120.573     -5512.2183      4.6721827     -1154.3776      24323.442     -19854.609      3314.4552      27           
     27200   9.8910551      18892.49       620.89         19513.38      -32.458973     -97.509876      12.103068     -11.970112      0.0054252566   0.00544       -0.0016970325  -0.0017360494   0.0054252566  -0.0016984741  -0.001737558    26.970984      0.58695986    -0.77817734     6.2094964     -7.2870675      13.685397      58.897946      52.639563      60.868056      1              188713.02      1.2718754      5960.7534      15126.195     -5541.7366      6.6501242     -1136.7646      24331.787     -19854.395      3340.6273      27.2         
     27400   9.9315132      18891.25       623.42968      19514.68      -132.25888     -427.36983      1.4883041      29.104903      0.0054650394   0.00548       -0.0018942944  -0.0020015401   0.0054650394  -0.0018960909  -0.0020035458   27.663411     -1.1482676      0.23649765     3.6148333     -8.8507784      13.638371      58.90029       52.629161      60.851868      1              188633.05      1.2724145      5959.0698      15132.111     -5537.2478      4.6733314     -1138.8969      24325.964     -19854.423      3332.6441      27.4         
     27600   10.04454       18887.396      630.52467      19517.921     -218.17612     -379.8641      -66.848076     -207.81617      0.0055048206   0.00552       -0.0018780503  -0.0020091222   0.0055048206  -0.0018798161  -0.0020111432   29.650381      1.6962677     -0.65663        4.2204907     -10.144113      10.430371      58.902633      52.630018      60.851406      1              188642.2       1.2723529      5951.2926      15128.142     -5528.1257      4.9740472     -1139.9614      24325.859     -19854.784      3331.1134      27.6         
[...]
     57000   10.06475       18897.841      631.79335      19529.634     -427.30923     -627.07906     -334.38319     -320.46544      0.01133551     0.0114        -0.004209327   -0.0043198517   0.01133551    -0.0042182112  -0.0043292092   58.646477     -0.22671525     0.71731316     2.0495788     -10.146174      11.985655      59.247079      52.507092      60.710512      1              188863.83      1.2708597      5964.876       15122.993     -5498.6441      4.1237152     -1166.0404      24325.278     -19854.745      3304.492       57           
     57200   10.041473      18892.153      630.33218      19522.486     -213.99399     -503.49896     -97.408918     -41.074091      0.011375058    0.01144       -0.0047265374  -0.0038593863   0.011375058   -0.0047377428  -0.0038668529   57.941111     -0.88353178    -0.70168474     5.9333304     -11.682806      13.562335      59.249422      52.47982       60.738588      1              188860.5       1.2708821      5951.3567      15137.382     -5533.6432      3.7997411     -1130.6861      24318.9       -19854.956      3333.258       57.2         
     57400   10.033542      18888.995      629.83433      19518.829     -30.029689     -513.76631      82.624056      341.05318      0.011414605    0.01148       -0.0040736428  -0.0046712037   0.011414605   -0.0040819627  -0.0046821478   58.555799      0.99424839     0.27587336     5.3855355     -9.9703717      11.783041      59.251765      52.514246      60.689089      1              188837.85      1.2710346      5966.7438      15115.011     -5560.5391      4.3710432     -1114.1207      24331.421     -19853.892      3363.4082      57.4         
     57600   10.108938      18899.218      634.56715      19533.785     -313.5469      -780.68222     -101.8894      -58.069072      0.01145415     0.01152       -0.0038392023  -0.0048415819   0.01145415    -0.0038465909  -0.0048533403   54.657065      0.17919988    -0.47487987     3.8210846     -6.8661991      12.95307       59.254108      52.526608      60.6787        1              188857.44      1.2709028      5962.377       15122.787     -5529.0285      4.1722993     -1131.5725      24325.227     -19854.744      3338.9099      57.6         
     57800   10.00482       18896.274      628.03137      19524.306     -101.02209     -681.44619      344.08906      34.290872      0.011493694    0.01156       -0.0044917923  -0.0044193743   0.011493694   -0.0045019107  -0.0044291686   59.052972     -0.2995347     -0.017224284    4.8147467     -7.6303573      9.5555296      59.256452      52.492198      60.704444      1              188821.25      1.2711463      5985.5622      15124.673     -5544.0841      5.388861      -1142.8239      24322.239     -19854.68       3324.7348      57.8         
     58000   9.9613249      18896.396      625.30104      19521.697     -89.878595     -532.97919      30.568056      232.77535      0.011533236    0.0116        -0.0041783683  -0.0041143162   0.011533236   -0.0041871221  -0.0041228033   53.828008     -0.41397673    -0.44356048     4.2230995     -8.2176359      13.508409      59.258795      52.508724      60.723044      1              188946.05      1.2703067      5966.9381      15122.026     -5536.3418      3.7003164     -1132.2567      24327.003     -19854.674      3340.073       58           
     58200   10.000075      18891.497      627.73351      19519.231     -332.34722     -597.10998     -148.80304     -251.12864      0.011572776    0.01164       -0.0045765837  -0.003808088    0.011572776   -0.0045870884  -0.0038153573   61.090558     -0.59477944     1.2808915      4.4595967     -7.8216491      9.6339667      59.261138      52.487727      60.741716      1              188936.04      1.270374       5957.4708      15123.366     -5510.8654      4.8562616     -1165.632       24335.912     -19853.61       3316.6695      58.2         
     58400   10.026098      18892.89       629.36703      19522.257     -361.30717     -674.45686     -398.80095     -10.663696      0.011612315    0.01168       -0.0043121049  -0.0045283765   0.011612315   -0.0043214288  -0.0045386607   56.026225     -0.54137525    -1.2058819      7.966872      -10.47132       12.822735      59.263481      52.501672      60.697797      1              188857.06      1.2709053      5952.7081      15113.243     -5506.0059      3.3382665     -1140.3354      24324.341     -19854.4        3329.6064      58.4         
     58600   10.014879      18900.551      628.66279      19529.213     -275.32771     -648.06106     -234.62099      56.698923      0.011651853    0.01172       -0.0037378779  -0.0048760131   0.011651853   -0.0037448812  -0.0048879396   61.778215      1.3059592     -0.49840099     6.2333519     -8.976839       9.8019049      59.265824      52.531951      60.676601      1              188907.46      1.2705663      5971.2552      15119.057     -5521.1155      4.1562123     -1144.7389      24326.496     -19854.559      3327.1979      58.6         
     58800   9.9578903      18889.92       625.08544      19515.006     -133.4467      -474.50805     -12.379322      86.547283      0.011691389    0.01176       -0.0048527062  -0.0043715577   0.011691389   -0.0048645188  -0.0043811409   63.451108      0.30419921     0.31673084     3.0134569     -9.8298074      13.527905      59.268167      52.473167      60.707359      1              188799.19      1.2712949      5946.9522      15116.112     -5513.6291      6.0307964     -1140.0899      24329.045     -19854.501      3334.4548      58.8         
     59000   9.9310006      18899.719      623.39749      19523.117     -263.51989     -588.9954      -249.63609      48.071805      0.011730923    0.0118        -0.0041748195  -0.0044709779   0.011730923   -0.0041835584  -0.0044810026   60.104739     -0.16371961     0.64200973     3.1207666     -11.1555        10.614654      59.270511      52.508911      60.701297      1              188916.4       1.2705061      5950.8012      15123.375     -5500.757       2.5432896     -1150.4852      24329.544     -19855.302      3323.7568      59           
     59200   9.9624314      18900.476      625.3705       19525.846     -203.6726      -676.83338      48.808485      17.007087      0.011770456    0.01184       -0.0046505987  -0.0046869239   0.011770456   -0.0046614463  -0.004697942    61.198415     -0.80425608    -0.48825746     6.2904352     -11.592702      12.915554      59.272854      52.483824      60.68813       1              188792.64      1.271339       5951.1742      15113.516     -5507.8917      4.7339804     -1138.6123      24331.829     -19854.273      3338.9437      59.2         
     59400   9.911238       18892.209      622.15695      19514.366     -213.79158     -490.63687     -70.366673     -80.371183      0.011809987    0.01188       -0.0046810704  -0.0045343199   0.011809987   -0.004692061   -0.0045446311   58.210473     -1.0067398      0.91837509     4.0023606     -9.3281769      9.632762       59.275197      52.482217      60.697435      1              188823.27      1.2711327      5956.0447      15123.573     -5521.7875      4.8297901     -1145.4017      24329.604     -19854.653      3329.5486      59.4         
     59600   10.005139      18896.424      628.05135      19524.475     -170.47091     -630.64522      23.911511      95.320981      0.011849516    0.01192       -0.004885744   -0.0044667672   0.011849516   -0.0048977182  -0.004476773    60.333444      1.9559284     -1.2568183      5.1609703     -11.465908      11.47488       59.27754       52.471425      60.701554      1              188804.72      1.2712576      5943.7842      15117.413     -5504.9296      4.713444      -1133.6085      24323.375     -19854.324      3335.4421      59.6         
     59800   9.9648179      18899.895      625.52031      19525.415     -120.52437     -482.39216      57.04277       63.776261      0.011889044    0.01196       -0.0047894911  -0.0041550694   0.011889044   -0.0048009975  -0.0041637257   58.151663     -1.5742213      0.54269845     3.445662      -10.201867      10.628062      59.279883      52.4765        60.720559      1              188889.57      1.2706866      5979.0719      15120.511     -5548.6265      4.1158104     -1132.6871      24332.25      -19854.741      3344.8223      59.8         
     60000   9.8978611      18890.901      621.31723      19512.218     -59.635076     -454.57535      32.704742      242.96538      0.011928571    0.012         -0.0049962426  -0.0045096739   0.011928571   -0.0050087656  -0.0045198732   56.363454     -0.11197917    -2.0192488      3.4900011     -10.140911      11.165047      59.282226      52.465598      60.698938      1              188790.54      1.2713531      5964.781       15124.24      -5536.0106      2.7156894     -1127.5686      24317.73      -19854.986      3335.1755      60           
     60200   9.9875272      18894.096      626.94583      19521.042     -201.36638     -564.175        101.86286     -141.78701      0.011968096    0.01204       -0.0047270237  -0.0045435883   0.011968096   -0.0047382314  -0.0045539418   55.309839      0.37466703     0.77487012     0.84722484    -11.31075       12.511539      59.28457       52.479794      60.69687       1              188842.65      1.2710023      5964.1815      15137.157     -5536.2705      4.6253235     -1144.4704      24323.356     -19854.483      3324.4024      60.2         
     60400   9.9691515      18901.564      625.79234      19527.356     -215.42114     -556.94755     -64.537779     -24.778097      0.012007619    0.01208       -0.0041213702  -0.0044136308   0.012007619   -0.0041298864  -0.0044233996   59.4527       -0.46768855    -0.0078190639   6.5802415     -9.5387381      10.843636      59.286913      52.51173       60.704794      1              188989.71      1.2700133      5964.8946      15131.353     -5543.0681      4.7544259     -1125.0078      24323.121     -19854.483      3343.6303      60.4         
     60600   9.8774037      18894.578      620.03306      19514.611     -250.97817     -526.13825     -87.102811     -139.69345      0.012047141    0.01212       -0.0039114006  -0.0047096898   0.012047141   -0.0039190702  -0.0047208153   64.071329      0.7353085     -0.053940381    3.7589864     -10.441046      13.876255      59.289256      52.522801      60.686742      1              188980.81      1.2700731      5950.3483      15114.018     -5511.2781      4.5213709     -1134.2267      24325.931     -19854.736      3336.9683      60.6         
     60800   10.087309      18888.643      633.20944      19521.852     -219.00061     -724.24876     -5.4200586      72.666999      0.012086661    0.01216       -0.0046298159  -0.0047911353   0.012086661   -0.0046405667  -0.0048026496   58.031689     -1.1802135     -0.038012283    4.0369692     -11.027201      9.5587857      59.291599      52.48492       60.681776      1              188836.52      1.2710436      5960.3432      15118.982     -5509.6647      3.7909644     -1147.4111      24317.175     -19854.572      3315.1911      60.8         
     61000   9.9916558      18898.347      627.205        19525.552     -236.59403     -732.19011      125.12157     -102.71354      0.01212618     0.0122        -0.0041396757  -0.0050426466   0.01212618    -0.0041482679  -0.0050554037   66.217908      0.048807352    0.77525779     6.2713372     -7.3848664      11.434325      59.293942      52.510764      60.66644       1              188889.22      1.2706889      5939.1964      15141.498     -5509.9184      4.1358217     -1147.5921      24325.252     -19854.224      3323.4353      61           
     61200   9.9462658      18896.624      624.35574      19520.98      -346.99417     -755.06142     -43.026427     -242.89467      0.012165697    0.01224       -0.004556577   -0.0045555716   0.012165697   -0.0045669898  -0.0045659798   57.66022       0.22063672    -1.451138       4.1327969     -10.030152      11.16554       59.296285      52.488782      60.696139      1              188910.04      1.2705489      5954.8099      15136.93      -5522.8106      4.8739358     -1155.6951      24333.067     -19854.551      3322.8215      61.2         
     61400   9.9551369      18896.611      624.9126       19521.524     -308.88673     -714.4509      -82.591271     -129.61802      0.012205212    0.01228       -0.0048141942  -0.0044327821   0.012205212   -0.0048258197  -0.004442636    60.038624     -0.18396665     1.5601717      8.970304      -11.176188      10.092264      59.298629      52.475198      60.703626      1              188891.91      1.2706708      5952.3386      15116.418     -5497.3339      3.6799408     -1155.7301      24331.823     -19854.584      3321.5088      61.4         
     61600   9.975936       18902.278      626.21822      19528.496     -264.48858     -550.34565     -93.164734     -149.95535      0.012244726    0.01232       -0.0042480636  -0.0045110054   0.012244726   -0.0042571123  -0.0045212107   66.372628      0.12262953     0.57510939     6.7197741     -11.31346       12.028751      59.300972      52.505049      60.698856      1              188991.99      1.269998       5952.1733      15129.334     -5526.6678      4.509662      -1136.186       24333.457     -19854.342      3342.9288      61.6         
     61800   9.8823857      18901.546      620.3458       19521.892     -132.899       -604.83679      122.17547      83.964335      0.012284239    0.01236       -0.0044168943  -0.0047343162   0.012284239   -0.0044266776  -0.0047455586   63.91473      -0.047862783   -0.52034636     6.428905      -10.499815      11.213823      59.303315      52.496147      60.68524       1              188925.02      1.2704481      5966.2285      15119.152     -5527.2978      5.3217699     -1139.1368      24331.741     -19854.462      3338.1416      61.8         
     62000   10.055605      18893.892      631.21928      19525.111     -99.554756     -469.87971      78.1696        93.045841      0.01232375     0.0124        -0.0047416922  -0.0048103317   0.01232375    -0.0047529697  -0.0048219386   58.290323     -0.45490283    -0.77810344     5.4599964     -11.879569      12.892107      59.305658      52.479021      60.680605      1              188856.42      1.2709096      5972.0899      15095.965     -5518.5846      4.3162721     -1126.7787      24321.596     -19854.713      3340.105       62           
     62200   9.9510605      18900.201      624.65671      19524.857     -102.65546     -529.6096       175.68617      45.957043      0.012363259    0.01244       -0.005065028   -0.0042416167   0.012363259   -0.0050778987  -0.0042506378   56.956934     -1.033929      -0.26967411     3.9218145     -9.5786028      10.59347       59.308001      52.461971      60.715282      1              188910.42      1.2705463      5964.3483      15112.492     -5522.3895      4.3324308     -1130.3491      24326.237     -19854.47       3341.4172      62.2         
     62400   9.9905467      18891.335      627.13538      19518.47      -152.91453     -615.48188      235.16752     -78.429224      0.012402767    0.01248       -0.0047628085  -0.0046391342   0.012402767   -0.0047741868  -0.0046499284   61.715376      1.2162139     -0.79514169     4.9020334     -11.854218      14.024756      59.310345      52.477907      60.691044      1              188899.83      1.2706176      5959.4495      15110.739     -5517.0899      4.2398571     -1142.6394      24331.238     -19854.602      3333.9969      62.4         
     62600   10.052747      18898.652      631.03987      19529.692     -35.361467     -378.68049      260.69076      11.905323      0.012442273    0.01252       -0.0050277086  -0.0044895404   0.012442273   -0.0050403901  -0.0044996487   59.555985      0.31626309     0.016385926    5.6117108     -8.5363276      9.1470753      59.312688      52.463939      60.700165      1              188885.39      1.2707147      5969.8679      15125.15      -5541.6892      4.9436997     -1138.5276      24333.444     -19854.537      3340.3793      62.6         
     62800   9.956426       18901.091      624.99353      19526.084     -196.55784     -570.62752      82.367382     -101.41339      0.012481778    0.01256       -0.0045486922  -0.004834302    0.012481778   -0.004559069   -0.004846025    66.127711     -1.0720772     -0.29242082     3.7103729     -11.57911       12.390167      59.315031      52.489197      60.679144      1              188918.35      1.270493       5975.7573      15122.585     -5533.6659      4.0411737     -1139.4166      24326.74      -19854.951      3332.3729      62.8         
     63000   10.014377      18894.216      628.63128      19522.848     -228.77627     -580.01016     -10.144345     -96.174294      0.012521281    0.0126        -0.0047484083  -0.0049172276   0.012521281   -0.0047597178  -0.0049293569   62.475011     -0.64937278     0.43919886     4.7023777     -9.4298324      12.199695      59.317374      52.478667      60.674088      1              188872.17      1.2708037      5958.1774      15115.284     -5512.1743      5.0658907     -1152.6207      24335.304     -19854.82       3327.8635      63           
     63200   10.016095      18897.308      628.73913      19526.047     -287.19928     -544.36146     -86.480337     -230.75604      0.012560782    0.01264       -0.0050566736  -0.0043379021   0.012560782   -0.0050695018  -0.0043473381   63.49869       1.1309844      0.47390357     6.2351428     -9.1843471      10.592445      59.319717      52.462412      60.709411      1              188931.05      1.2704076      5966.6649      15122.05      -5511.2225      5.3768799     -1151.6132      24320.3       -19854.248      3314.4386      63.2         
     63400   10.109216      18889.646      634.58458      19524.23      -188.22539     -519.16306      82.271062     -127.78418      0.012600282    0.01268       -0.004910049   -0.0045442896   0.012600282   -0.0049221429  -0.0045546463   59.395328     -0.53725917    -1.0936215      4.480974      -9.2175875      11.511213      59.32206       52.470143      60.696827      1              188927.19      1.2704335      5950.0441      15126.345     -5534.3184      4.1146529     -1123.83        24321.411     -19854.121      3343.4606      63.4         
     63600   9.9907912      18890.33       627.15073      19517.481     -341.38254     -810.60182     -139.68024     -73.865556      0.01263978     0.01272       -0.0045374632  -0.0048713931   0.01263978    -0.0045477888  -0.004883297    65.965269      0.52198548     0.63297769     4.3816863     -8.7320214      11.230404      59.324404      52.489789      60.676882      1              188943.29      1.2703253      5953.2706      15120.959     -5520.484       5.0754671     -1139.2555      24325.28      -19854.515      3331.5089      63.6         
     63800   10.000898      18903.356      627.78515      19531.141     -254.89265     -758.38853      133.35118     -139.64061      0.012679277    0.01276       -0.0042422378  -0.0055060753   0.012679277   -0.0042512616  -0.0055212896   64.263648     -0.66904252    -0.86638105     5.4287931     -9.8173508      13.059377      59.326747      52.505356      60.638183      1              188886.24      1.270709       5959.8526      15121.976     -5511.8331      3.842505      -1140.3387      24324.348     -19854.491      3329.5177      63.8         
     64000   10.05114       18894.622      630.93896      19525.561     -129.32631     -648.47575      244.60721      15.889623      0.012718772    0.0128        -0.0042125794  -0.0056754678   0.012718772   -0.0042214773  -0.0056916345   68.475469      1.0491166      0.20933736     6.3400652     -10.814251      10.226822      59.32909       52.50692       60.627855      1              188867.15      1.2708374      5956.9447      15135.663     -5539.4848      4.041448