thermo_style   custom step temp pe ke etotal press pxx pyy pzz v_etrue v_eengx v_eengy v_eengz v_etruex v_etruey v_etruez                f_sxx_ave f_syy_ave f_szz_ave f_sxy_ave f_sxz_ave f_syz_ave lx ly lz v_dir vol density ebond eangle edihed                eimp evdwl ecoul elong epair v_Time

restart        ${nsteps} rst1.a.${myid} rst2.a.${myid}
restart        200 rst1.a.${myid} rst2.a.${myid}
restart        200 rst1.a.tensile_1_EPON_862_pxld_86.8_replicate_4_FF_PCFF_temp_75 rst2.a.${myid}
restart        200 rst1.a.tensile_1_EPON_862_pxld_86.8_replicate_4_FF_PCFF_temp_75 rst2.a.tensile_1_EPON_862_pxld_86.8_replicate_4_FF_PCFF_temp_75
dump           6 all atom 10000 dump.${myid} #every picosecond
dump           6 all atom 10000 dump.tensile_1_EPON_862_pxld_86.8_replicate_4_FF_PCFF_temp_75 
dump_modify    6 scale no sort id

#-------------------Run-------------------
run            ${steps}
run            750000

CITE-CITE-CITE-CITE-CITE-CITE-CITE-CITE-CITE-CITE-CITE-CITE-CITE

Your simulation uses code contributions which should be cited:

- Type Label Framework: https://doi.org/10.1021/acs.jpcb.3c08419

@Article{Gissinger24,
 author = {Jacob R. Gissinger, Ilia Nikiforov, Yaser Afshar, Brendon Waters, Moon-ki Choi, Daniel S. Karls, Alexander Stukowski, Wonpil Im, Hendrik Heinz, Axel Kohlmeyer, and Ellad B. Tadmor},
 title = {Type Label Framework for Bonded Force Fields in LAMMPS},
 journal = {J. Phys. Chem. B},
 year =    2024,
 volume =  128,
 number =  13,
 pages =   {3282–-3297}
}

CITE-CITE-CITE-CITE-CITE-CITE-CITE-CITE-CITE-CITE-CITE-CITE-CITE

PPPM initialization ...
  using 12-bit tables for long-range coulomb (../kspace.cpp:342)
  G vector (1/distance) = 0.1808367
  grid = 15 15 15
  stencil order = 5
  estimated absolute RMS force accuracy = 0.022661584
  estimated relative force accuracy = 6.8244688e-05
  using double precision KISS FFT
  3d grid and FFT values/proc = 1521 256
Generated 66 of 66 mixed pair_coeff terms from sixthpower/sixthpower mixing rule
Neighbor list info ...
  update: every = 1 steps, delay = 0 steps, check = yes
  max neighbors/atom: 5000, page size: 100000
  master list distance cutoff = 14
  ghost atom cutoff = 14
  binsize = 7, bins = 9 8 9
  1 neighbor lists, perpetual/occasional/extra = 1 0 0
  (1) pair lj/class2/coul/long, perpetual
      attributes: half, newton on
      pair build: half/bin/newton
      stencil: half/bin/3d
      bin: standard
WARNING: Inconsistent image flags (../domain.cpp:1051)
Per MPI rank memory allocation (min/avg/max) = 19.47 | 19.55 | 19.86 Mbytes
   Step          Temp          PotEng         KinEng         TotEng         Press           Pxx            Pyy            Pzz          v_etrue        v_eengx        v_eengy        v_eengz        v_etruex       v_etruey       v_etruez      f_sxx_ave      f_syy_ave      f_szz_ave      f_sxy_ave      f_sxz_ave      f_syz_ave          Lx             Ly             Lz           v_dir          Volume        Density         E_bond        E_angle        E_dihed        E_impro         E_vdwl         E_coul         E_long         E_pair         v_Time    
         0   75.672762      23007.898      4750.1971      27758.095     -187.66996      291.02718     -556.12957     -297.90749      0             -3.6192662e-16  4.0436373e-16 -5.8056165e-16 -3.3306691e-16  4.4408921e-16 -5.5511151e-16  0              0              0              0              0              0              58.896696      52.715614      61.194425      1              189994.95      1.2632938      7383.7854      16725.209     -4926.2731      91.426447     -827.41243      24383.315     -19822.153      3733.7496      0            
       200   74.499429      23001.024      4676.5436      27677.567     -375.45841     -61.469694     -346.83736     -718.06817      3.99992e-05    4e-05          0.0002777533  -0.00052584267  3.99992e-05    0.00027771474 -0.00052598098 -2.7654155     -4.9832007     -0.45115096     0.55141634    -28.626694     -3.6127116      58.899052      52.730256      61.162247      1              189955.39      1.2635569      7392.7988      16721.674     -4856.7994      88.766403     -885.07972      24362.34      -19822.677      3654.5838      0.2          
       400   74.202152      23018.464      4657.8827      27676.347      314.59223      313.7257       530.4699       99.581084      7.99968e-05    8e-05          0.00044377058 -0.0016104935   7.99968e-05    0.00044367214 -0.0016117918   4.81924        9.2360503      2.5144552      1.0132567     -24.61313       3.1995528      58.901408      52.739007      61.095872      1              189788.33      1.2646691      7528.5269      16744.982     -5010.8839      87.134687     -847.41125      24338.238     -19822.122      3668.7051      0.4          
       600   75.241063      23003.522      4723.0982      27726.62      -352.85927     -431.05114     -121.82161     -505.70506      0.0001199928   0.00012        0.00015557851 -0.0012490572   0.0001199928   0.00015556641 -0.0012498379  -10.487041     -4.7651982     -1.8730867     -4.3424845     -21.330191      8.6632424      58.903763      52.723815      61.11799       1              189809.93      1.2645252      7390.6691      16707.238     -4816.3272      95.29693      -899.25944      24346.84      -19820.935      3626.6451      0.6          
       800   75.138814      23033.871      4716.6797      27750.55      -160.54846     -513.71949     -110.54705      142.62115      0.0001599872   0.00016        8.6099317e-05 -0.0011040269   0.0001599872   8.609561e-05  -0.0011046368   14.302033      0.70701519     3.3639137     -3.029614      -31.096803      1.7377352      58.906119      52.720153      61.126865      1              189831.9       1.2643788      7480.9489      16726.882     -4902.5938      88.828759     -915.48198      24377.892     -19822.605      3639.805       0.8          
      1000   75.315532      23019.407      4727.7728      27747.18      -53.712941      337.34165     -332.68702     -165.79345      0.00019998     0.0002         0.00037662719 -0.0013603823   0.00019998     0.00037655629 -0.0013613084   8.9034999     -4.7895425     -4.4893042      7.549276      -28.430365      8.9512228      58.908475      52.735468      61.111178      1              189845.91      1.2642856      7464.9531      16696.783     -4926.1252      89.858088     -838.70364      24352.877     -19820.235      3693.9378      1            
      1200   75.244262      22972.51       4723.2989      27695.809     -229.47086     -269.20313      408.13921     -827.34867      0.0002399712   0.00024        0.0013729246  -0.00047343947  0.0002399712   0.001371983   -0.00047355158  3.8293085      7.9471063      5.1310975     -4.5083772     -30.701769      7.4624297      58.910831      52.787988      61.165454      1              190211.37      1.2618565      7459.1864      16689.55      -4933.1654      82.754059     -898.40415      24393.897     -19821.308      3674.1848      1.2          
      1400   75.434854      23032.199      4735.2629      27767.462      98.425485      95.009143     -246.07834      446.34566      0.00027996081  0.00028       -0.00013883026 -0.0015299604   0.00027996081 -0.0001388399  -0.001531132   -1.8784144     -7.5079123     -6.3650827     -5.7918978     -28.551888      5.9410932      58.913187      52.708295      61.1008        1              189731.04      1.265051       7471.229       16756.811     -4959.2476      95.348613     -869.94118      24359.73      -19821.731      3668.0579      1.4          
      1600   75.601728      23063.052      4745.7381      27808.791     -316.8656      -476.26985     -23.411546     -450.91539      0.00031994881  0.00032        0.0011206309  -0.00020076809  0.00031994881  0.0011200035  -0.00020078824  2.2266642     -4.1748824     -4.9857156      1.9175751     -26.739094      6.1711148      58.915543      52.774689      61.18214       1              190230.53      1.2617293      7507.3415      16737.275     -4949.5989      94.926644     -890.2048       24383.283     -19819.97       3673.1082      1.6          
      1800   75.002151      23008.501      4708.1009      27716.602      34.324546      67.513228      144.8784      -109.41799      0.00035993522  0.00036        0.0017341783  -0.000358644    0.00035993522  0.0017326764  -0.00035870832  13.039102      9.4169543      8.6281831     -1.1830973     -20.543109      5.3783123      58.917899      52.807032      61.172478      1              190324.67      1.2611052      7440.7639      16719.223     -4926.6431      91.246598     -845.58654      24352.195     -19822.698      3683.9105      1.8          
      2000   74.390932      23014.424      4669.733       27684.157     -92.218526     -185.48699      249.50111     -340.6697       0.00039992002  0.0004         0.00010942413 -0.00034988199  0.00039992002  0.00010941814 -0.00034994321 -0.91122991     1.9196315     -1.1129803     -3.44868       -23.820941      9.592169       58.920254      52.721382      61.173015      1              190025.24      1.2630924      7428.1734      16731.355     -4899.3274      93.376709     -864.45222      24346.837     -19821.539      3660.8465      2            
      2200   75.404236      23014.932      4733.341       27748.273     -494.91605     -245.45374     -872.55495     -366.73945      0.00043990323  0.00044       -0.00022934603  0.00073238149  0.00043990323 -0.00022937233  0.00073211343 -1.0367479     -0.2507896     -7.4741089     -8.1738579     -23.470661      4.4175759      58.92261       52.703524      61.239243      1              190174.13      1.2621035      7430.5885      16709.246     -4907.4903      100.28077     -860.23478      24365.195     -19822.653      3682.3069      2.2          
      2400   75.567129      22987.535      4743.5662      27731.101     -294.29126     -21.417151     -541.68379     -319.77283      0.00047988484  0.00048       -0.0011198528   0.00043877818  0.00047988484 -0.0011204803   0.00043868195  6.2734427     -3.9814624      10.790865     -2.3023222     -17.427934      2.2976655      58.924966      52.65658       61.221276      1              189956.59      1.2635489      7438.049       16671.656     -4920.3555      87.297253     -835.95358      24369.118     -19822.276      3710.8886      2.4          
      2600   74.749207      22985.116      4692.2229      27677.339      242.72671      79.250001      679.18561     -30.255473      0.00051986485  0.00052       -0.00036881768 -0.00033927581  0.00051986485 -0.00036888571 -0.00033933338  3.2678097     -4.2012903      0.27736262     0.11089114    -24.732713      12.579647      58.927322      52.696171      61.173664      1              189959.17      1.2635317      7455.3035      16671.212     -4919.4415      85.834084     -875.00006      24388.746     -19821.537      3692.2085      2.6          
      2800   74.812071      23037.607      4696.169       27733.776      194.68314      326.52815     -201.84384      459.36511      0.00055984326  0.00056       -0.00046483903 -0.0013713163   0.00055984326 -0.00046494711 -0.0013722575  -4.2916145      4.8795969     -11.226741      3.1430516     -22.360453      8.6594293      58.929678      52.69111       61.110509      1              189752.41      1.2649085      7488.8641      16751.576     -4950.7581      84.857644     -884.71119      24368.69      -19820.912      3663.0674      2.8          
      3000   75.134874      23024.194      4716.4323      27740.626     -657.2521      -485.16464     -1282.5051     -204.08662      0.00059982007  0.0006        -0.00011362118  0.00025239612  0.00059982007 -0.00011362764  0.00025236427  0.33767002    -1.012141       2.731902       3.6304769     -21.968188     -2.2924108      58.932034      52.709624      61.209871      1              190135.33      1.2623611      7392.4279      16731.905     -4868.1319      87.293083     -879.16063      24380.316     -19820.456      3680.6997      3            
      3200   74.834503      22967.079      4697.5772      27664.656      191.53439     -145.68955      22.222558      698.07016      0.00063979529  0.00064       -0.001779399   -0.00062659655  0.00063979529 -0.001780984   -0.00062679295  7.3210478      3.019121       10.391924      2.343291      -27.610904      8.6783878      58.93439       52.621812      61.156081      1              189659.34      1.2655292      7467.0393      16679.515     -4938.5814      89.323771     -869.57735      24360.102     -19820.743      3669.7823      3.2          
      3400   75.242351      23023.923      4723.179       27747.102      107.88662      242.9829       137.39559     -56.718639      0.0006797689   0.00068       -0.00076217639 -0.0011636429   0.0006797689  -0.00076246699 -0.0011643204  -4.5632012     -11.863707     -3.1693936      1.3911357     -22.345269      7.0959819      58.936746      52.675435      61.123217      1              189758.17      1.2648701      7471.3937      16710.018     -4912.6816      96.493172     -894.84571      24374.424     -19820.879      3658.6993      3.4          
      3600   74.906711      23008.492      4702.1099      27710.602     -759.40816     -971.41724     -198.50127     -1108.306       0.00071974092  0.00072        0.0011884034  -0.0011434996   0.00071974092  0.0011876978  -0.0011441539   15.218188      10.266048     -1.9499635      0.1207306     -25.875749      12.44204       58.939101      52.778261      61.12445       1              190140.03      1.2623299      7509.2961      16712.588     -4922.3995      91.324961     -957.44692      24397.447     -19822.318      3617.6823      3.6          
      3800   75.401911      22935.577      4733.195       27668.772      289.15181      428.53231      506.02039     -67.097273      0.00075971135  0.00076        0.001195349   -0.0013442128   0.00075971135  0.0011946351  -0.0013451171  -3.2104986      0.073490899   -1.2976968      2.7828114     -21.491627      5.5753539      58.941457      52.778627      61.112167      1              190110.74      1.2625244      7390.9518      16666.459     -4988.3187      93.45499      -779.48002      24375.069     -19822.558      3773.0302      3.8          
      4000   75.466174      23004.605      4737.229       27741.834      140.82122      66.915061      575.2022      -219.6536       0.00079968017  0.0008         0.00051173542 -0.0010428261   0.00079968017  0.00051160453 -0.0010433702   1.6581351      3.0570803     -5.896187       1.4398208     -14.931352      5.2929118      58.943813      52.74259       61.13061       1              190045.86      1.2629554      7425.0958      16718.054     -4911.4372      90.706213     -863.75818      24366.936     -19820.991      3682.1864      4            
      4200   75.145499      22973.953      4717.0993      27691.053      28.855244      412.35268     -359.06396      33.27702       0.0008396474   0.00084       -0.0012701467  -0.00042338065  0.0008396474  -0.001270954   -0.0004234703  -4.0775758     -3.3945059      2.843987      -2.8764662     -22.584777      8.5443758      58.946169      52.648657      61.168517      1              189832.62      1.2643741      7420.6252      16685.246     -4896.8352      92.069567     -886.72679      24379.898     -19820.323      3672.8482      4.2          
      4400   74.424541      22993.557      4671.8427      27665.4        260.61401     -66.416416      431.37776      416.88069      0.00087961303  0.00088       -0.0017759732  -8.7722787e-05  0.00087961303 -0.0017775521  -8.7726635e-05  4.5441345     -3.9806732      3.5330604      0.27297018    -31.223511      12.352182      58.948525      52.621992      61.189057      1              189807.77      1.2645396      7449.4497      16765.268     -4961.9569      94.757068     -876.83332      24345.032     -19822.159      3646.0397      4.4          
      4600   74.83738       23027.502      4697.7578      27725.26      -105.61792     -63.237103     -196.22818     -57.388486      0.00091957706  0.00092       -0.00060338565 -3.0695431e-05  0.00091957706 -0.00060356776 -3.0695902e-05  1.9489761     -1.7492917     -2.5938821     -6.4618654     -25.210234      1.5165269      58.950881      52.683806      61.192547      1              190049.17      1.2629334      7510.2172      16686.466     -4889.351       93.139141     -902.65977      24351.814     -19822.124      3627.0309      4.6          
      4800   75.138598      23004.977      4716.6661      27721.643     -66.924842     -198.77143     -70.813612      68.810516      0.00095953949  0.00096       -0.0010810319  -0.00028598033  0.00095953949 -0.0010816166  -0.00028602123  2.8197599      6.4415045      4.4833956     -4.5775568     -24.642676      4.291402       58.953237      52.658627      61.176925      1              189917.43      1.2638094      7456.6565      16757.751     -4926.9317      93.241163     -912.64324      24361.101     -19824.198      3624.2594      4.8          
      5000   75.818537      22995.684      4759.3478      27755.032     -137.67122     -223.2638       283.40855     -473.15842      0.00099950033  0.001         -0.00030030105 -0.00016504572  0.00099950033 -0.00030034615 -0.00016505934  8.6551264     -2.7036086      1.6191725      6.55611       -18.653979      1.2248059      58.955593      52.699783      61.184326      1              190096.45      1.2626192      7488.7286      16684.774     -4958.7966      88.878822     -847.10756      24360.358     -19821.152      3692.0986      5            
      5200   74.87002       22990.257      4699.8067      27690.064     -534.39239     -580.41559     -956.61404     -66.147544      0.0010394596   0.00104        0.00115235    -0.0021351182   0.0010394596   0.0011516865  -0.0021374008   0.40579206    -6.6654614     -5.2467779      0.64568261    -21.972071      6.2259205      58.957948      52.776361      61.063768      1              190005.16      1.2632259      7440.1091      16690.764     -4906.8725      87.546621     -856.58469      24356.593     -19821.298      3678.7097      5.2          
      5400   74.57019       23033.533      4680.9855      27714.519     -255.76361     -28.079327     -123.01341     -616.19808      0.0010794172   0.00108        0.0018949217  -0.0021607327   0.0010794172   0.0018931286  -0.0021630704  -6.4562684      4.134102      -8.279611      -2.9034123     -22.461659      13.084037      58.960304      52.815506      61.062201      1              190148.81      1.2622716      7453.8837      16760.446     -4972.2518      95.876417     -853.76068      24370.967     -19821.627      3695.5789      5.4          
      5600   74.847707      23054.66       4698.406       27753.066      305.85939      11.010021      486.57493      419.99321      0.0011193733   0.00112       -0.00038849531 -0.0013797125   0.0011193733  -0.0003885708  -0.0013806651   13.280245      10.880078     -0.37816854     2.6363942     -22.465113      5.3081804      58.96266       52.695134      61.109995      1              189871.52      1.264115       7466.5875      16730.187     -4889.6817      97.067136     -902.85818      24374.338     -19820.979      3650.5005      5.6          
      5800   74.504724      23016.616      4676.876       27693.492      94.301295      215.79907      33.891254      33.213555      0.0011593277   0.00116       -0.0015001153  -0.00030871088  0.0011593277  -0.0015012416  -0.00030875854  3.1173285     -10.193578      2.9800634      3.4437408     -22.28782       1.405478       58.965016      52.636534      61.175534      1              189871.37      1.264116       7459.9552      16723.411     -4982.8583      101.5372      -841.34236      24379.417     -19823.504      3714.5707      5.8          
      6000   75.957034      23025.258      4768.0417      27793.3        413.57685      779.44523     -44.133117      505.41843      0.0011992806   0.0012        -0.001261846    0.00024146441  0.0011992806  -0.0012626428   0.00024143527  15.654991      2.9778715      4.3176638     -2.2565581     -26.210294      3.0052614      58.967372      52.649095      61.209202      1              190028.79      1.2630688      7461.0773      16739.645     -5009.0796      96.663621     -824.96017      24382.233     -19820.321      3736.952       6            
      6200   74.873088      23048.292      4699.9993      27748.291     -144.42939     -574.89265      87.297403      54.307076      0.0012392318   0.00124       -0.0015866718  -6.1928378e-05  0.0012392318  -0.0015879319  -6.1930295e-05  4.9673302     -6.3500525      0.68757907    -5.4543588     -17.691611      4.4512638      58.969728      52.631971      61.190636      1              189916.95      1.2638126      7457.1928      16741.564     -4890.4794      94.278733     -896.59389      24364.35      -19822.021      3645.7358      6.2          
      6400   74.793489      23003.24       4695.0026      27698.243     -275.50552     -554.92414     -54.580435     -217.012        0.0012791815   0.00128       -0.00062830266 -0.00024445789  0.0012791815  -0.00062850012 -0.00024448777  11.868769     -1.0985166     -0.60514148    -0.2278539     -23.74475       4.3108585      58.972084      52.682492      61.179466      1              190072.14      1.2627807      7407.3077      16758.774     -4898.0639      89.658733     -896.0801       24362.946     -19821.302      3645.5633      6.4          
      6600   75.356558      23044.086      4730.3481      27774.434     -494.6437      -962.80282     -172.32988     -348.79839      0.0013191296   0.00132       -0.00041875601  8.5288603e-05  0.0013191296  -0.00041884372  8.5284967e-05  1.045776       5.1534892     -1.8492179      4.6453085     -26.4483        5.9180049      58.974439      52.693539      61.199645      1              190182.3       1.2620493      7358.2216      16728.838     -4802.779       99.542278     -870.69628      24352.852     -19821.892      3660.2634      6.6          
      6800   75.276832      23029.866      4725.3435      27755.21      -175.37501     -71.256765     -32.782158     -422.0861       0.001359076    0.00136       -0.00041981503 -0.00099029434  0.001359076   -0.00041990318 -0.000990785    4.7405288      0.33736969     4.6075142     -0.3696721     -23.315931      8.7716275      58.976795      52.693483      61.133825      1              189985.15      1.263359       7501.8254      16750.86      -4962.4537      93.36469      -886.50359      24352.762     -19819.989      3646.2696      6.8          
      7000   74.685732      23021.486      4688.2384      27709.724      418.97941      553.38603      499.27869      204.2735       0.0013990209   0.0014         0.00077280107 -0.0010619677   0.0013990209   0.00077250262 -0.001062532    6.9161656     -0.046389136   -2.0156137     -2.9776553     -18.895845      12.319245      58.979151      52.756353      61.129439      1              190205.77      1.2618936      7445.0152      16756.81      -4982.1363      92.260531     -811.52411      24341.878     -19820.817      3709.5369      7            
      7200   74.773363      23007.399      4693.7392      27701.138      368.4123      -56.543404      764.18789      397.59241      0.0014389642   0.00144        0.00046002152 -0.0019926391   0.0014389642   0.00045991574 -0.0019946271   15.047722      6.6497967      2.8112591     -3.1815839     -29.441723      12.805217      58.981507      52.739864      61.072487      1              189976.76      1.2634147      7424.6817      16741.146     -4948.345       86.910749     -840.51528      24362.881     -19819.361      3703.0049      7.2          
      7400   75.355019      23010.526      4730.2515      27740.777      341.55114     -45.252499      824.89115      245.01477      0.0014789059   0.00148       -0.00024947261 -0.0033053645   0.0014789059  -0.00024950373 -0.0033108393  -2.4748742     -14.289877     -8.517318       3.9806537     -10.136168     -4.2180744      58.983863      52.702463      60.992156      1              189599.9       1.265926       7468.9197      16707.462     -4979.8332      95.747708     -838.93133      24377.941     -19820.78       3718.2298      7.4          
      7600   74.896215      22977.742      4701.451       27679.193     -8.9512265     -236.56473      147.68965      62.021407      0.001518846    0.00152        0.00096330777 -0.0010352769   0.001518846    0.00096284409 -0.0010358132   11.005291      10.82208      -1.7266016      5.7020488     -27.999105      12.418021      58.986219      52.766395      61.131072      1              190269.86      1.2614685      7431.4953      16655.566     -4893.5328      94.99138      -863.03776      24371.722     -19819.462      3689.2223      7.6          
      7800   75.235042      23041.045      4722.7202      27763.765     -661.0195      -796.9709      -356.75364     -829.33396      0.0015587845   0.00156       -0.0003831015  -0.00030274087  0.0015587845  -0.0003831749  -0.0003027867   8.3898477      4.0295216      12.127503      0.66273367    -20.336144     -1.9774985      58.988575      52.695418      61.175899      1              190160.86      1.2621916      7448.5459      16708.072     -4891.791       91.394845     -836.13162      24341.571     -19820.616      3684.8236      7.8          
      8000   75.401875      22994.105      4733.1928      27727.298      312.85389      527.54639     -326.65123      737.6665       0.0015987214   0.0016        -0.0008377554  -0.0021083989   0.0015987214  -0.00083810651 -0.0021106247  -0.27477501    -6.6973196     -7.9736758      4.5820779     -28.025374      7.5105651      58.990931      52.671451      61.065403      1              189738.63      1.2650004      7457.2657      16755.967     -4980.1993      91.178018     -851.18878      24341.088     -19820.005      3669.894       8            
      8200   74.652672      23016.599      4686.1632      27702.762      57.598929      507.48911     -690.19795      355.50563      0.0016386567   0.00164       -0.0013203298  -0.0018306606   0.0016386567  -0.0013212022  -0.0018323384   20.203734      5.8734489     -0.87962401     4.1039911     -24.744071      0.93276144     58.993286      52.646012      61.082399      1              189707.35      1.265209       7482.129       16763.151     -4938.7659      89.271953     -910.42176      24351.819     -19820.584      3620.8135      8.2          
      8400   74.831749      23017.196      4697.4043      27714.6       -1.1868891     -322.22109     -69.468822      388.12925      0.0016785904   0.00168       -0.0024868796  -0.00013150427  0.0016785904  -0.002489977   -0.00013151292 -7.5601551     -8.2028443     -7.4586078      0.45868868    -19.471113      1.829532       58.995642      52.584516      61.186378      1              189815.89      1.2644855      7482.8581      16751.006     -4922.4761      91.878124     -927.3185       24362.861     -19821.613      3613.9296      8.4          
      8600   74.928455      23005.201      4703.4748      27708.676     -344.72775     -65.374469     -663.80098     -305.00781      0.0017185225   0.00172       -0.0018978986   0.0020085323   0.0017185225  -0.0018997019   0.0020065179   0.46706975     0.430824       7.3238621      0.014200166   -24.942602      2.7786877      58.997998      52.615565      61.317336      1              190342.07      1.2609899      7396.8161      16698.122     -4877.352       88.450888     -849.85913      24369.681     -19820.658      3699.1636      8.6          
      8800   75.594085      23066.584      4745.2583      27811.842      13.223329     -526.46578      74.988751      491.14701      0.001758453    0.00176       -0.0025020777   0.0010511507   0.001758453   -0.0025052132   0.0010505986   11.918061      1.5389072      2.2534066      2.9741128     -15.371249      11.435226      59.000354      52.583715      61.25875       1              190052.69      1.26291        7434.9355      16777.014     -4931.1711      101.36062     -843.73778      24349.339     -19821.157      3684.4448      8.8          
      9000   75.302583      22990.76       4726.9599      27717.72       304.76888     -270.71114      257.92005      927.09774      0.0017983819   0.0018        -0.0016287167   0.00081330913  0.0017983819  -0.0016300445   0.00081297857  21.566405     -5.476961      -0.86951949     0.45112917    -14.9573       -0.018537568    59.00271       52.629755      61.244195      1              190181.49      1.2620547      7467.516       16718.742     -4950.7384      90.039058     -873.70773      24360.676     -19821.767      3665.2012      9            
      9200   74.351722      23021.285      4667.2716      27688.556     -63.464262     -87.022969     -293.29841      189.9286       0.0018383093   0.00184       -0.0016992414  -0.00037045954  0.0018383093  -0.0017006868  -0.00037052818  20.815495      7.043562       6.7332065     -9.6834157     -21.165422      10.959593      59.005066      52.626037      61.171755      1              189950.71      1.263588       7440.6318      16742.338     -4988.9906      95.58398      -800.26022      24353.691     -19821.71       3731.7213      9.2          
      9400   75.525786      23034.561      4740.971       27775.532     -163.82569     -18.073334     -55.247187     -418.15654      0.001878235    0.00188       -0.00074115206 -0.00068359669  0.001878235   -0.00074142685 -0.00068383045 -0.2332977     -6.3946059     -11.434655      2.6628357     -17.606426      7.597674       59.007422      52.676544      61.152593      1              190081.03      1.2627217      7477.4193      16750.294     -4895.7621      93.298379     -917.69038      24348.253     -19821.25       3609.3124      9.4          
      9600   75.015518      22999.043      4708.94        27707.983     -44.975736      361.778       -130.46184     -366.24337      0.0019181592   0.00192       -0.00022490941 -0.0013890454   0.0019181592  -0.00022493471 -0.001390011    9.0193336      4.2205164      5.7802633      8.8896904     -21.275594      9.9246223      59.009777      52.703758      61.109424      1              190052.57      1.2629108      7478.4928      16695.187     -4889.8304      87.84035      -882.24363      24331.151     -19821.553      3627.354       9.6          
      9800   74.738806      23025.085      4691.57        27716.655     -139.38126      82.708909     -242.31579     -258.5369       0.0019580817   0.00196       -0.00039223963 -0.0024050324   0.0019580817  -0.00039231657 -0.0024079291   2.1014395     -0.055438863   -3.9092588      2.7249446     -17.868787      3.7502983      59.012133      52.694937      61.047251      1              189835.01      1.2643581      7449.3037      16716.531     -4899.0114      98.941871     -864.27716      24345.188     -19821.591      3659.3198      9.8          
     10000   75.426135      23052.935      4734.7157      27787.651      208.975       -208.562        125.21871      710.2683       0.0019980027   0.002          9.3582783e-06 -0.0022472607   0.0019980027   9.3582345e-06 -0.0022497896   7.1306069     -5.30023       -5.1734809     -1.1834436     -24.764851      5.0347421      59.014489      52.716107      61.056906      1              189948.9       1.2636001      7464.6777      16727.438     -4927.9744      90.260343     -851.10092      24370.846     -19821.212      3698.5328      10           
     10200   74.301278      23065.856      4664.1052      27729.961      181.74704      34.892988     -26.475459      536.82358      0.002037922    0.00204        0.00053676523 -0.0025691647   0.002037922    0.00053662122 -0.0025724707   0.85359764     7.9227525      6.0411159      1.7114828     -26.095554      4.2394817      59.016845      52.74391       61.037207      1              189995.35      1.2632912      7486.6806      16715.135     -4912.6207      90.807979     -846.87828      24353.904     -19821.173      3685.8525      10.2         
     10400   75.12887       22978.72       4716.0555      27694.775      205.96318     -334.02224      546.24413      405.66766      0.0020778398   0.00208       -0.0005888131  -0.0015045962   0.0020778398  -0.00058898652 -0.0015057293  -2.2841955     -8.723376      -5.1731263     -1.6043453     -24.285878      1.8541871      59.019201      52.684574      61.102353      1              189991.74      1.2633151      7377.6991      16720.765     -4906.5757      95.168324     -856.73563      24368.817     -19820.418      3691.6629      10.4         
     10600   75.744534      23017.383      4754.7024      27772.085      24.01514      -487.47997      29.834611      529.69078      0.002117756    0.00212        0.00012651283 -0.0013971661   0.002117756    0.00012650483 -0.001398143    17.681213      4.2971684      11.629833      0.96955664    -23.635064      5.610396       59.021557      52.722283      61.108927      1              190155.78      1.2622253      7424.8764      16762.986     -4935.5102      88.509654     -887.25017      24385.73      -19821.96       3676.5202      10.6         
     10800   75.490376      23023.756      4738.7482      27762.505      124.05015     -12.287133      37.177489      347.2601       0.0021576706   0.00216       -0.00041338829 -0.0022990731   0.0021576706  -0.00041347376 -0.00230172     14.769157     -2.7549301     -15.541466     -1.5289065     -24.561908      2.9294839      59.023913      52.693822      61.053735      1              189889.05      1.2639983      7460.6215      16712.364     -4927.5322      94.384464     -848.92397      24352.908     -19820.065      3683.919       10.8         
     11000   74.866104      22991.484      4699.5609      27691.045      132.24859      777.67347     -396.09508      15.167372      0.0021975835   0.0022        -0.00073206084 -0.00049904524  0.0021975835  -0.00073232892 -0.0004991698   14.649461      2.8734328      7.7060249     -2.4056744     -21.495083      3.5528062      59.026269      52.677023      61.163887      1              190178.59      1.2620739      7450.08        16715.396     -4912.0292      84.930002     -884.36074      24357.82      -19820.353      3653.1068      11           
     11200   75.420803      23012.557      4734.3809      27746.938      12.599952     -37.005286      7.1700281      67.635115      0.0022374949   0.00224       -0.0012379349  -0.00017907087  0.0022374949  -0.0012387018  -0.00017908691  4.0475863     -6.381871      -4.9177523      9.7445697     -28.376208      7.7946331      59.028624      52.650355      61.183467      1              190150.76      1.2622587      7384.011       16699.568     -4892.0267      92.98136      -818.28937      24366.098     -19819.786      3728.0229      11.2         
     11400   74.893094      23049.823      4701.2551      27751.078     -178.78666     -95.724927     -325.58185     -115.0532       0.0022774047   0.00228       -0.00067018464 -0.00049424247  0.0022774047  -0.00067040931 -0.00049436464  9.4340119      6.0821702      5.5035511     -1.9785237     -13.859407      3.9091013      59.03098       52.680285      61.164181      1              190206.46      1.261889       7415.9749      16700.177     -4884.5184      87.870063     -817.28137      24368.604     -19821.002      3730.3203      11.4         
     11600   74.444247      23001.762      4673.0797      27674.841     -150.8758      -286.31535     -359.59373      193.28166      0.002317313    0.00232        0.00023987512 -0.0015120356   0.002317313    0.00023984635 -0.0015131799   19.329431      2.1786511      5.943594       2.3997528     -22.823846      4.7972964      59.033336      52.728259      61.101897      1              190193.41      1.2619756      7481.7698      16732.364     -4951.6115      93.948697     -897.47374      24365.066     -19822.302      3645.2902      11.6         
     11800   75.165897      23020.83       4718.3797      27739.21       384.09297      6.812809       756.62387      388.84222      0.0023572196   0.00236       -0.0015137362  -0.001661247    0.0023572196  -0.0015148831  -0.0016626284   4.3662142     -0.7470243     -13.635056     -4.5442595     -22.709024      5.0410283      59.035692      52.635816      61.092766      1              189839.16      1.2643305      7431.5117      16725.969     -4908.3181      94.80707      -856.16405      24355.92      -19822.895      3676.8611      11.8         
     12000   75.800299      23065.843      4758.203       27824.046      365.68263     -254.89476      180.0564       1171.8863      0.0023971246   0.0024        -0.0011130539  -0.0014213534   0.0023971246  -0.0011136738  -0.0014223645   14.353604     -2.1902897      8.340186       2.8948886     -19.625762      10.929877      59.038048      52.656939      61.107447      1              189968.56      1.2634693      7453.9745      16727.791     -4912.3987      95.628176     -849.86164      24372.019     -19821.309      3700.848       12           
     12200   74.932549      23002.992      4703.7318      27706.723     -115.27356     -311.82754      140.44156     -174.4347       0.002437028    0.00244       -0.00093297553 -0.0019470968   0.002437028   -0.00093341102 -0.0019489948   15.456789      1.8481978      1.0369566     -1.2892236     -13.625759      6.8417048      59.040404      52.666431      61.075274      1              189910.35      1.2638565      7501.1113      16706.907     -4963.9816      95.199562     -883.33734      24367.674     -19820.582      3663.7554      12.2         
     12400   74.907895      22990.8        4702.1842      27692.984      399.58478      18.218416      322.04976      858.48618      0.0024769299   0.00248       -0.0014861946  -0.0032477913   0.0024769299  -0.0014873001  -0.0032530768   17.737894     -1.7993974     -1.3687225      0.25225625    -29.146871      3.3715628      59.04276       52.637268      60.995679      1              189565.39      1.2661564      7430.67        16697.219     -4958.7349      92.710935     -809.41708      24359.185     -19820.834      3728.9344      12.4         
     12600   75.282899      23042.544      4725.7243      27768.268     -102.44355      144.04789      42.626013     -494.00456      0.0025168301   0.00252       -0.0012245024  -0.0012459786   0.0025168301  -0.0012252528  -0.0012467555   0.95946814     4.7110141     -0.00081004204 -7.8555821     -31.295336      0.6288186      59.045115      52.651063      61.118179      1              190003.47      1.2632372      7490.2857      16770.582     -4972.8106      90.97897      -867.30471      24351.515     -19820.702      3663.5084      12.6         
     12800   74.170456      23010.218      4655.893       27666.111     -323.95641     -681.58578      96.651722     -386.93517      0.0025567288   0.00256       -0.0028354124  -0.00053282583  0.0025567288  -0.0028394398  -0.00053296783  11.050636      2.0382273     -4.9510476      0.71070514    -19.553077      6.5187048      59.047471      52.566143      61.161819      1              189840.04      1.2643246      7460.4521      16748.255     -4930.042       89.798644     -897.77966      24359.879     -19820.345      3641.7541      12.8         
     13000   75.013561      23014.734      4708.8172      27723.551     -483.4015      -228.40744     -359.03008     -862.76699      0.0025966258   0.0026        -0.0026502277  -0.00046975408  0.0025966258  -0.0026537457  -0.00046986445  2.3690235     -12.471747      11.785775      4.8325294     -24.531246      0.93476663     59.049827      52.575905      61.165679      1              189894.85      1.2639597      7451.7764      16749.693     -4961.9873      91.9852       -860.89582      24364.671     -19820.509      3683.2664      13           
     13200   75.925535      22979.97       4766.0644      27746.035     -81.202091     -53.470443      37.164161     -227.29999      0.0026365213   0.00264       -0.00092116622 -0.0013820484   0.0026365213  -0.00092159075 -0.0013830043   3.3453619      4.099938      -0.89170824     2.8000563     -16.768718      4.1990932      59.052183      52.667054      61.109852      1              190058.03      1.2628745      7480.6066      16716.219     -5012.7845      89.855406     -839.09267      24365.526     -19820.359      3706.074       13.2         
     13400   74.508364      22976.178      4677.1045      27653.282      451.92783      471.77751     -79.138732      963.14472      0.0026764152   0.00268       -0.00028107346 -0.0024446968   0.0026764152  -0.00028111297 -0.00244769     8.8389239      4.6415692     -1.5662625      7.7645719     -17.738804      3.5422146      59.054539      52.700797      61.044824      1              189985         1.26336        7444.785       16691.831     -4946.2601      90.422801     -836.78605      24353.657     -19821.473      3695.3986      13.4         
     13600   75.071618      23019.057      4712.4616      27731.518     -473.81258     -707.27906     -537.06992     -177.08876      0.0027163075   0.00272       -0.00024330656 -0.0025466799   0.0027163075  -0.00024333617 -0.0025499282   5.9536224     -5.2529961     -7.0949003      4.0707246     -17.662175      3.733193       59.056895      52.702788      61.038583      1              189980.33      1.263391       7454.6373      16776.389     -4941.0679      91.539056     -901.97853      24358.731     -19819.194      3637.5589      13.6         
     13800   75.122197      23017.918      4715.6366      27733.555     -105.35067      246.79604     -746.97994      184.13189      0.0027561982   0.00276       -0.00086749853 -0.0013907372   0.0027561982  -0.00086787502 -0.0013917051   19.232491      7.3568129     -1.5218017     -0.85347675    -27.709026      8.6794866      59.059251      52.669883      61.10932       1              190089.33      1.2626666      7423.7241      16705.634     -4887.4776      94.761085     -877.91816      24379.877     -19820.683      3681.2761      13.8         
     14000   74.987156      22985.405      4707.1597      27692.565     -329.74789     -173.15893     -890.32946      74.244705      0.0027960873   0.0028        -0.0025127812  -0.00034393978  0.0027960873  -0.0025159436  -0.00034399894  18.980359      1.6495653     -3.1443442     -0.87519384    -30.830666      4.1121338      59.061607      52.583151      61.173378      1              189982.82      1.2633744      7464.201       16705.216     -4936.891       94.673903     -857.72058      24336.881     -19820.955      3658.2049      14           
     14200   74.787673      22997.824      4694.6375      27692.461     -342.27755     -152.38147     -681.42346     -193.02771      0.0028359748   0.00284       -0.0029190712   0.0011227242   0.0028359748  -0.00292334     0.0011220944   18.896326     -6.7572179      13.799096      0.95198161    -12.670522      6.9099209      59.063962      52.561733      61.26313       1              190191.65      1.2619873      7443.0153      16673.031     -4896.1146      94.488627     -856.23322      24361.371     -19821.734      3683.4033      14.2         
     14400   75.484658      23023.557      4738.3893      27761.946      44.435314     -179.64564      455.9611      -143.00952      0.0028758607   0.00288       -0.0024728133   0.00082177148  0.0028758607  -0.0024758757   0.00082143401  6.4954809     -5.9896823     -11.023738      0.96962066    -24.472415      6.9410101      59.066318      52.585258      61.244713      1              190227.16      1.2617517      7451.8049      16695.166     -4932.9354      95.38123      -845.04631      24379.551     -19820.364      3714.1404      14.4         
     14600   74.428419      23032.864      4672.0861      27704.95       384.90382      499.44684      361.50734      293.7573       0.0029157451   0.00292       -0.0021493066  -0.00041761176  0.0029157451  -0.0021516197  -0.00041769899  16.750654      7.7199246      7.2348712     -5.660084      -25.314455      6.7894465      59.068674      52.602312      61.16887       1              190060.78      1.2628562      7462.5053      16717.861     -4957.6779      92.3589       -810.06419      24349.942     -19822.061      3717.8166      14.6         
     14800   74.908741      22978.946      4702.2373      27681.184     -218.53953     -530.14141      57.511244     -182.98843      0.0029556278   0.00296       -0.0012155424  -0.002201432    0.0029556278  -0.0012162817  -0.0022038587   1.6087618     -8.0412223     -0.60849605    -6.3308666     -16.058053      5.4177723      59.07103       52.651536      61.05971       1              189906.72      1.2638807      7390.761       16663.09      -4874.4779      91.142205     -839.5141       24368.665     -19820.719      3708.4314      14.8         
     15000   74.773363      23030.113      4693.7393      27723.852      38.347003     -190.40837      44.292705      261.15667      0.002995509    0.003          0.00041368595 -0.0021283996   0.002995509    0.00041360041 -0.0021306678   5.8278661      2.4839138     -4.0035706      5.2737295     -21.102583      8.1800408      59.073386      52.737422      61.064179      1              190238         1.2616798      7451.111       16699.873     -4871.1064      89.321805     -879.61134      24362.267     -19821.743      3660.9131      15           
     15200   75.115869      23014.698      4715.2394      27729.938     -92.086115     -404.61928      5.5974356      122.7635       0.0030353885   0.00304        0.00049229485 -0.0027708144   0.0030353885   0.00049217371 -0.0027746603   13.702995     -0.97528587    -1.2004052      9.9305785     -25.217434      3.7588888      59.075742      52.741565      61.024867      1              190138.05      1.262343       7469.4409      16727.465     -4933.7435      91.892783     -863.95732      24346.648     -19823.048      3659.6429      15.2         
     15400   74.694898      23086.643      4688.8138      27775.456     -588.12135     -787.50122     -908.50786     -68.354981      0.0030752665   0.00308       -6.6739144e-05 -0.0016022213   0.0030752665  -6.6741372e-05 -0.0016035062   22.696418      2.7556617      0.27448589    -2.2292656     -19.259603      4.0246145      59.078098      52.712096      61.096378      1              190262.09      1.2615201      7444.5578      16738.756     -4895.1218      89.165122     -833.04473      24363.455     -19821.125      3709.2857      15.4         
     15600   75.021597      22994.6        4709.3216      27703.921     -49.94471       112.2963      -501.96058      239.83015      0.0031151429   0.00312       -0.00021285926 -0.0024069009   0.0031151429  -0.00021288192 -0.0024098021   16.314436      2.2493544      3.5062114     -1.4424557     -20.586383      7.1170739      59.080454      52.704393      61.047137      1              190088.54      1.2626718      7481.0045      16688.065     -4882.6622      88.553352     -901.57064      24342.991     -19821.781      3619.6389      15.6         
     15800   74.734182      23010.563      4691.2798      27701.843      349.34633     -296.11068      604.77484      739.37483      0.0031550177   0.00316       -0.0019018365  -0.0012222549   0.0031550177  -0.0019036473  -0.0012230024   11.708933      0.4573268     -7.5685382     -2.2152298     -23.593014      3.486234       59.082809      52.615357      61.11963       1              190000.34      1.2632579      7460.3528      16745.98      -4958.833       85.543777     -876.01181      24375.367     -19821.835      3677.52        15.8         
     16000   75.362375      23055.669      4730.7132      27786.383     -190.81638      109.76327     -514.24718     -167.96523      0.0031948909   0.0032        -0.0018179844  -0.0015650437   0.0031948909  -0.001819639   -0.0015662696   21.395858     -2.3515133      10.202718     -3.5317116     -21.938641      3.0063146      59.085165      52.619778      61.098654      1              189958.66      1.2635351      7491.3772      16730.398     -4938.3873      92.070434     -835.67001      24338.136     -19822.255      3680.2109      16           
     16200   75.174542      23014.421      4718.9224      27733.344     -78.28089       18.006612     -761.85815      509.00886      0.0032347625   0.00324       -0.001085865   -0.0019930146   0.0032347625  -0.0010864549  -0.0019950033   20.928854     -4.0919112     -2.3527972     -2.5225663     -23.338945      3.0384285      59.087521      52.658372      61.072464      1              190024.08      1.2631001      7514.3258      16719.809     -4901.5179      89.496113     -928.81739      24341.254     -19820.128      3592.3087      16.2         
     16400   74.301123      23013.388      4664.0954      27677.484      58.378015     -157.24804      152.25242      180.12966      0.0032746325   0.00328       -0.0018514689  -0.0020052823   0.0032746325  -0.001853185   -0.0020072956   19.283713      7.5108448     -1.0138662      2.4824108     -30.772421      2.9189687      59.089877      52.618013      61.071713      1              189883.68      1.2640341      7485.3721      16696.821     -4971.7823      92.37163      -810.7639       24343.53      -19822.159      3710.6064      16.4         
     16600   75.715957      23022.174      4752.9086      27775.082      167.15467      183.05729      332.5562      -14.1495        0.003314501    0.00332       -0.002607469   -0.0012565081   0.003314501   -0.0026108743  -0.0012572981   18.816681     -2.3687005     -6.2716362      6.0955143     -18.396715      1.6453932      59.092233      52.57816       61.117534      1              189889.79      1.2639934      7473.1923      16683.234     -4893.7194      84.934213     -855.2731       24351.898     -19822.092      3674.5329      16.6         
     16800   74.518746      23044.373      4677.7562      27722.13       5.788914      -114.33732      365.75302     -234.04896      0.0033543678   0.00336       -0.0031535685  -0.00046517565  0.0033543678  -0.0031585514  -0.00046528387  14.245747      5.2696491      1.9879301      2.5129594     -14.516519      12.662744      59.094589      52.549372      61.165959      1              189943.76      1.2636342      7414.1491      16710.37      -4863.1877      92.574367     -851.79866      24363.866     -19821.6        3690.4672      16.8         
     17000   74.605367      23019.944      4683.1937      27703.138     -289.30855     -592.52547      408.79261     -684.1928       0.0033942331   0.0034        -0.0031632387  -0.00053720846  0.0033942331  -0.0031682523  -0.00053735281  14.631822     -11.181905      8.9142567     -3.8359762     -23.5207        5.6884261      59.096945      52.548862      61.161551      1              189935.8       1.2636872      7484.3407      16677.466     -4898.1233      91.713177     -874.01242      24358.953     -19820.393      3664.5473      17           
     17200   74.767201      23031.143      4693.3524      27724.495     -106.90229     -112.05665      233.02158     -441.67181      0.0034340967   0.00344       -0.0010586666  -0.0022112028   0.0034340967  -0.0010592273  -0.0022136511   12.375419      6.2130425      3.3256562     -6.5660731     -16.554428      7.8549605      59.0993        52.659806      61.059112      1              190025.58      1.2630901      7420.588       16706.983     -4885.0763      92.195711     -856.61567      24373.972     -19820.903      3696.4528      17.2         
     17400   74.918288      23014.518      4702.8366      27717.355     -84.774761      491.83187     -260.51562     -485.64053      0.0034739588   0.00348       -0.00059314491 -0.0038334535   0.0034739588  -0.00059332089 -0.00384082     6.8226642     -1.4404695     -7.2741892      3.35878       -25.561259      11.708682      59.101656      52.684346      60.959839      1              189812.61      1.2645074      7481.236       16684.616     -4902.0019      96.00383      -891.08439      24367.691     -19821.942      3654.6639      17.4         
     17600   74.967925      23011.19       4705.9525      27717.143      302.02714      195.24785      474.70005      236.13352      0.0035138193   0.00352        0.00037541796 -0.0041021274   0.0035138193   0.00037534751 -0.0041105642   16.483007      1.9284564     -2.6989038     -5.2575042     -23.846674      6.1923632      59.104012      52.735404      60.943398      1              189952.89      1.2635735      7462.4467      16687.343     -4928.5338      93.572076     -828.0457       24344.602     -19820.194      3696.3627      17.6         
     17800   74.897778      23013.379      4701.5492      27714.928      214.42101      144.4556       562.86088     -64.053448      0.0035536782   0.00356       -0.00032063403 -0.0025744009   0.0035536782  -0.00032068544 -0.0025777204   21.637052      0.94419501    -0.33922482    -0.076012886   -23.661568      5.8145367      59.106368      52.698711      61.036886      1              190119.49      1.2624662      7495.8007      16723.848     -4966.1173      91.691114     -848.11034      24336.945     -19820.678      3668.1563      17.8         
     18000   74.132826      23028.182      4653.5309      27681.713      60.054092     -271.41075      389.33172      62.241296      0.0035935355   0.0036        -0.0010722529  -0.0020789721   0.0035935355  -0.0010728282  -0.0020811362   8.2194994     -7.044899      -0.20859251     3.2254531     -25.130511      7.2063537      59.108724      52.659089      61.067204      1              190078.49      1.2627386      7399.0862      16743.792     -4872.4487      98.669041     -857.09072      24337.537     -19821.363      3659.0837      18           
     18200   75.252983      23035.478      4723.8464      27759.324     -74.997595     -33.397368     -290.41769      98.822273      0.0036333912   0.00364       -0.0022280132  -0.0024209585   0.0036333912  -0.002230499   -0.0024238938   21.10121       3.4223505     -0.30072921     1.2980255     -22.090275      9.348431       59.11108       52.598163      61.046276      1              189801.07      1.2645843      7423.1739      16703.046     -4860.0663      92.654444     -846.85046      24344.957     -19821.436      3676.6697      18.2         
     18400   75.105235      23009.243      4714.5718      27723.815     -861.67501     -828.67389     -679.17146     -1077.1797      0.0036732454   0.00368       -0.0017833422  -0.0003433417   0.0036732454  -0.0017849342  -0.00034340066  19.564679     -1.9601688     -3.265106      -5.4344542     -27.084887      1.0280973      59.113436      52.621604      61.173415      1              190288.7       1.2613436      7474.6765      16667.508     -4877.9795      90.546348     -874.96131      24352.189     -19822.735      3654.4922      18.4         
     18600   74.056888      23029.865      4648.7641      27678.629     -398.37008     -652.88904     -217.96004     -324.26116      0.0037130979   0.00372       -0.0025372221  -8.9634835e-05  0.0037130979  -0.0025404463  -8.9638853e-05  29.615782      1.8738723      7.6930658     -1.7581276     -26.617671      12.382279      59.115792      52.581863      61.18894       1              190200.83      1.2619264      7447.0426      16766.654     -4926.4615      96.215682     -889.38671      24357.687     -19821.887      3646.4138      18.6         
     18800   75.132739      22993.365      4716.2983      27709.663     -5.3956449      126.401       -423.47172      280.88379      0.0037529489   0.00376       -0.0016120196  -0.0016191375   0.0037529489  -0.0016133203  -0.0016204497   10.63793      -0.76905553    -4.1073182      1.9268439     -23.311929      5.9419809      59.118147      52.630635      61.095343      1              190093.62      1.2626381      7427.3443      16722.727     -4950.4193      94.288216     -850.19096      24372.153     -19822.537      3699.4249      18.8         
     19000   76.099436      22984.057      4776.9807      27761.038      456.69095      352.39347      808.79932      208.88005      0.0037927982   0.0038        -0.0027652607  -0.0014279398   0.0037927982  -0.002769091   -0.0014289602   18.608833      2.456063       1.1958828     -1.8538021     -18.136896      1.9451484      59.120503      52.569841      61.107044      1              189917.97      1.2638058      7447.7857      16767.788     -5026.535       89.800698     -857.4189       24383.019     -19820.382      3705.2182      19           
     19200   74.64729       22986.177      4685.8253      27672.002     -521.73655     -654.67956     -647.53019     -262.99991      0.003832646    0.00384       -0.0017661654  -0.0010599542   0.003832646   -0.0017677269  -0.0010605163   12.05112      -7.5187179     -3.9496583     -3.1456117     -22.836447      10.437865      59.122859      52.622509      61.129562      1              190185.88      1.2620256      7466.0721      16735.157     -4935.6307      88.189039     -902.77856      24355.112     -19819.943      3632.3897      19.2         
     19400   74.480667      23031.157      4675.3659      27706.523     -193.44683     -74.028158     -252.09427     -254.21805      0.0038724922   0.00388       -0.0012294131  -0.0022395332   0.0038724922  -0.0012301694  -0.0022420447   18.738809      7.7863383      1.7697314      2.3987891     -21.911892      2.1464643      59.125215      52.650805      61.057379      1              190071.02      1.2627882      7460.1291      16775.629     -4943.5154      90.773737     -896.88077      24366.983     -19821.961      3648.1413      19.4         
     19600   74.672504      23035.192      4687.408       27722.6        234.49121     -54.478977      204.05851      553.89409      0.0039123368   0.00392       -0.0024025355  -0.0012828449   0.0039123368  -0.0024054262  -0.0012836684   14.979116     -1.1549522     -3.398712      -7.4005118     -25.714176      6.937532       59.127571      52.588963      61.115923      1              190037.37      1.2630118      7419.1345      16736.771     -4934.6866      89.257249     -824.04965      24371.032     -19822.266      3724.7165      19.6         
     19800   74.827726      23030.267      4697.1518      27727.419      37.752164     -338.88851     -134.34276      586.48777      0.0039521798   0.00396       -0.0027470097  -0.00053538809  0.0039521798  -0.0027507896  -0.00053553146  18.662029     -2.851241       6.1047973     -5.0607448     -22.548983      1.7974716      59.129927      52.570804      61.161663      1              190121.5       1.2624529      7457.5973      16676.378     -4876.07        90.95074      -852.01814      24354.585     -19821.157      3681.4105      19.8         
     20000   74.484568      23018.337      4675.6108      27693.948      313.12314     -25.84575       1079.5959     -114.38077      0.0039920213   0.004         -0.0030866106  -0.0017150432   0.0039920213  -0.003091384   -0.0017165155   27.325046     -4.1559752      0.60433002    -1.7863846     -17.507857      8.8493539      59.132283      52.552901      61.089474      1              189840         1.2643249      7471.6486      16680.284     -4906.055       92.39432      -852.78799      24353.88      -19821.026      3680.0652      20           
     20200   74.73752       22948.462      4691.4893      27639.952      335.09928     -459.6733       1010.3926      454.57854      0.0040318611   0.00404       -0.0011053743  -0.0018729622   0.0040318611  -0.0011059857  -0.0018747183   11.796317     -7.3848242     -1.6662266     -2.0607703     -23.693276      10.42565       59.134638      52.657343      61.079811      1              190194.77      1.2619666      7443.344       16725.936     -4963.7486      90.050623     -875.96422      24350.412     -19821.567      3652.8799      20.2         
     20400   75.155136      23020.548      4717.7042      27738.252     -548.17102     -708.77404     -209.81165     -725.92737      0.0040716994   0.00408       -0.00014705135 -0.0027588756   0.0040716994  -0.00014706216 -0.0027626883   38.041664      7.8383086      0.76548808     0.023795295   -28.039004     -0.10895384     59.136994      52.707862      61.025598      1              190215.84      1.2618267      7432.5359      16713.365     -4928.5309      92.027493     -821.27045      24354.174     -19821.752      3711.1511      20.4         
     20600   74.909563      23011.89       4702.2889      27714.179     -486.62932     -412.11871     -625.33552     -422.43374      0.004111536    0.00412       -0.00048822085 -0.0033127207   0.004111536   -0.00048834007 -0.0033182199   16.660589      3.7704191     -2.4714554     -8.2190955     -24.475532      10.715504      59.13935       52.689877      60.991705      1              190052.9       1.2629086      7420.3398      16699.272     -4883.1041      98.21491      -863.37224      24363.074     -19822.533      3677.1683      20.6         
     20800   75.061279      22959.232      4711.8126      27671.044      295.28684      533.3299       279.7895       72.74112       0.0041513711   0.00416       -0.0012273903  -0.0033218738   0.0041513711  -0.0012281442  -0.0033274035   22.972787      0.7096036     -3.3867624      3.6144159     -21.491529      8.7001865      59.141706      52.650911      60.991145      1              189918.18      1.2638045      7349.075       16712.463     -4907.319       88.740995     -826.64767      24364.093     -19821.173      3716.272       20.8         
     21000   74.554126      23044.699      4679.9771      27724.677      41.409189     -73.14643      -86.511569      283.88557      0.0041912046   0.0042        -0.0018662618  -0.0027472812   0.0041912046  -0.0018680055  -0.002751062    26.644407      2.5635993     -0.86820249    -2.4563477     -22.991351      3.4599542      59.144062      52.617233      61.026307      1              189913.68      1.2638344      7498.6674      16724.602     -4939.3921      92.605059     -873.68453      24360.701     -19818.799      3668.2169      21           
     21200   75.007461      23021.263      4708.4343      27729.697      37.775508     -74.142331      255.43445     -67.965594      0.0042310365   0.00424       -0.0025097829  -0.0020283222   0.0042310365  -0.0025129377  -0.002030382    22.658378     -3.9121298      0.68216105    -0.68244699    -28.63772      -1.1431408      59.146418      52.583309      61.070303      1              189935.63      1.2636883      7425.6981      16779.368     -4902.6255      86.690175     -885.02679      24338.209     -19821.05       3632.1318      21.2         
     21400   74.541571      23007.058      4679.189       27686.247     -439.66199     -847.52234      142.93938     -614.40301      0.0042708669   0.00428       -0.0020896738  -0.0018715765   0.0042708669  -0.0020918602  -0.0018733301   10.809013     -3.6066406      4.1437055     -5.4716801     -28.494056      16.400828      59.148774      52.605455      61.079895      1              190053.04      1.2629077      7453.0822      16700.153     -4901.8292      94.982209     -867.53462      24350.658     -19822.453      3660.6703      21.4         
     21600   74.786743      23000.778      4694.5792      27695.357     -300.0147      -313.39653      168.27438     -754.92195      0.0043106956   0.00432       -0.0024706375  -0.0020045729   0.0043106956  -0.0024736946  -0.0020065847   11.8984        7.4428365      8.0291716      3.8621063     -30.926007      4.315773       59.15113       52.585373      61.071757      1              189962.73      1.263508       7404.568       16740.227     -4936.4888      96.116344     -851.77904      24368.646     -19820.511      3696.3554      21.6         
     21800   75.850928      22980.95       4761.3811      27742.331      266.81103     -388.63504      1104.7258      84.342334      0.0043505227   0.00436       -0.0024264493  -0.0022792011   0.0043505227  -0.0024293979  -0.0022818024   14.624805     -7.1272019     -9.1488949     -2.0503089     -14.999432      9.6802243      59.153485      52.587702      61.054951      1              189926.44      1.2637495      7432.4201      16781.532     -4974.9219      88.429415     -858.71417      24332.782     -19820.578      3653.4898      21.8         
     22000   74.806897      22957.732      4695.8443      27653.576     -205.30777     -274.94446      45.505459     -386.48431      0.0043903483   0.0044        -0.00087600179 -0.0019889427   0.0043903483  -0.00087638571 -0.0019909233   29.87562       0.61572649     0.57806997     1.4120853     -18.050108      4.7411053      59.155841      52.669435      61.072713      1              190284.54      1.2613712      7432.3563      16699.923     -4954.8522      98.452053     -850.99596      24354.18      -19821.331      3681.8534      22           
     22200   74.868691      22995.058      4699.7233      27694.781      125.22306     -63.738033      347.20533      92.201895      0.0044301723   0.00444       -0.00085791484 -0.0034428476   0.0044301723  -0.00085828306 -0.0034487878   19.17053       2.7953711      6.7544175     -9.1220715     -28.927782      5.484447       59.158197      52.670388      60.983742      1              190018.34      1.2631383      7473.3658      16699.152     -4939.0944      93.108253     -888.29449      24378.751     -19821.93       3668.5263      22.2         
     22400   74.956005      23036.755      4705.2042      27741.959      444.49633      413.8113       904.48008      15.197592      0.0044699947   0.00448       -0.00083461663 -0.0041254794   0.0044699947  -0.00083496511 -0.0041340127   9.0882622     -2.2490079     -14.842217      0.28624711    -30.883673      2.6469997      59.160553      52.671617      60.941969      1              189900.17      1.2639243      7392.6111      16736.307     -4891.9665      94.975145     -852.82895      24380.143     -19822.486      3704.8279      22.4         
     22600   74.902218      22984.983      4701.8279      27686.811      271.66019     -125.85789      322.14951      618.68896      0.0045098155   0.00452       -0.00045919444 -0.0035510403   0.0045098155  -0.0004592999  -0.0035573602   22.593686      4.074555       3.2379024      2.9581523     -26.485742      9.2559783      59.162909      52.691407      60.977122      1              190088.67      1.2626709      7411.4126      16711.3       -4929.3669      95.134257     -839.19789      24356.436     -19820.735      3696.5029      22.6         
     22800   74.738865      22999.098      4691.5737      27690.671     -148.00303      18.256825     -612.15259      149.88669      0.0045496347   0.00456       -0.001261955   -0.0033602639   0.0045496347  -0.0012627519  -0.0033659223   27.962608      9.422856       0.39274828     0.97855845    -21.63767       3.5369085      59.165265      52.649089      60.988796      1              189979.93      1.2633936      7465.9956      16723.901     -4944.0389      88.226321     -872.19729      24358.698     -19821.488      3665.0132      22.8         
     23000   75.533074      23009.986      4741.4285      27751.415     -196.30379      156.52539     -469.23116     -276.20559      0.0045894523   0.0046        -0.0031598894  -0.0020660297   0.0045894523  -0.0031648924  -0.0020681669   14.32941      -11.585801     -2.3231967      0.33761687    -22.850998      10.265657      59.167621      52.549038      61.067996      1              189872.71      1.2641071      7431.8254      16702.302     -4921.2239      90.799894     -856.58554      24384.331     -19821.463      3706.2823      23           
     23200   74.834252      23016.848      4697.5614      27714.409      487.34856      391.1419       419.08994      651.81385      0.0046292684   0.00464       -0.0013400566  -0.0014268353   0.0046292684  -0.0013409553  -0.0014278542   16.201668     -0.85821583     10.821192      4.7946857     -24.574374      7.0348383      59.169976      52.644972      61.107111      1              190348.76      1.2609457      7463.122       16784.835     -4964.2286      93.052912     -920.32551      24381.012     -19820.62       3640.0666      23.2         
     23400   74.517682      23017.341      4677.6894      27695.03      -96.016759     -493.77413     -299.41386      505.13772      0.0046690828   0.00468       -0.0011270463  -0.0033774644   0.0046690828  -0.0011276819  -0.0033831809   19.323812      0.21115006    -3.573157       5.6532445     -24.665541      9.6093533      59.172332      52.656201      60.987743      1              190025.01      1.2630939      7485.5977      16680.325     -4909.1593      84.94601      -868.62248      24365.585     -19821.332      3675.6311      23.4         
     23600   75.309941      22999.617      4727.4218      27727.039     -429.18267     -547.53715     -358.89426     -381.11661      0.0047088957   0.00472       -0.0012565423  -0.0025244246   0.0047088957  -0.0012573324  -0.0025276163   8.7541832     -1.3828982     -8.0048154      7.5826472     -23.468174     -0.15297314     59.174688      52.649374      61.039945      1              190170.58      1.2621271      7409.9151      16753.547     -4934.0552      94.405475     -873.18113      24371.013     -19822.027      3675.8047      23.6         
     23800   75.803627      22995.046      4758.4119      27753.458     -173.38037     -609.91278      675.82888     -586.05722      0.004748707    0.00476       -0.0017332807  -0.0022156033   0.004748707   -0.0017347846  -0.0022180614   23.158998      1.538936       10.500908      0.55908078    -18.925585      1.8419496      59.177044      52.624243      61.058843      1              190146.22      1.2622888      7432.3985      16688.306     -4892.5949      93.803407     -881.42387      24376.051     -19821.494      3673.1332      23.8         
     24000   74.78669       22973.051      4694.5759      27667.627     -1.0770063     -196.15823      313.19484     -120.26763      0.0047885167   0.0048        -0.001180863   -0.0030665894   0.0047885167  -0.0011815607  -0.0030713011   20.361092     -0.59287146    -4.7462024     -0.82634956    -23.897806      9.0747818      59.1794        52.653364      61.006767      1              190096.75      1.2626173      7449.476       16734.927     -4941.0905      99.814505     -890.32162      24342.972     -19822.727      3629.9239      24           
     24200   75.083808      23009.866      4713.2268      27723.093     -113.47546      182.07989      395.1827      -917.68897      0.0048283249   0.00484       -0.0011199522  -0.0028843641   0.0048283249  -0.0011205798  -0.0028885319   8.8549351      2.2269112     -2.1839701     -0.1366593     -27.555332      12.210989      59.181756      52.656575      61.017918      1              190150.66      1.2622593      7383.6722      16708.101     -4851.0475      89.088924     -891.58314      24394.582     -19822.947      3680.0517      24.2         
     24400   74.966658      23021.803      4705.873       27727.676      45.029531     -671.75385      641.6938       165.14864      0.0048681314   0.00488       -0.001951458   -0.003688966    0.0048681314  -0.0019533646  -0.0036957871   23.637938      5.2256106      0.96809803     0.66249654    -17.795487      7.5458215      59.184112      52.612742      60.968681      1              189846.62      1.2642808      7480.7707      16694.592     -4946.2832      98.536678     -868.74383      24385.552     -19822.622      3694.1866      24.4         
     24600   75.018893      22996.55       4709.1519      27705.701      245.51272     -262.34042      147.31127      851.56732      0.0049079364   0.00492       -0.0015754719  -0.0024986056   0.0049079364  -0.0015767143  -0.0025017324   15.561475     -2.8290793     -3.5586329     -6.3599525     -20.952734      5.5778433      59.186468      52.632562      61.041525      1              190152.62      1.2622463      7475.418       16683.239     -4890.9307      93.424451     -891.90593      24351.502     -19824.197      3635.3986      24.6         
     24800   74.742351      22970.395      4691.7925      27662.188      57.054623     -273.58725      31.284039      413.46708      0.0049477397   0.00496       -0.0019577193  -0.00090452178  0.0049477397  -0.0019596381  -0.00090493111  30.101612     -4.5563947      3.1607203     -2.0027064     -16.358711      3.9737973      59.188823      52.612411      61.139074      1              190391.16      1.2606649      7436.2288      16687.067     -4913.8701      91.446165     -899.45874      24390.426     -19821.445      3669.5231      24.8         
     25000   75.675599      22992.907      4750.3752      27743.282      141.59789     -286.89854      310.57902      401.1132       0.0049875415   0.005         -0.002834676   -0.0017469477   0.0049875415  -0.0028387013  -0.0017484754   14.582005     -5.655218       1.3314186      2.8953987     -31.794188      3.4214706      59.191179      52.566182      61.087522      1              190071.03      1.2627881      7409.8601      16746.72      -4973.4188      85.515181     -819.02755      24364.633     -19821.375      3724.2305      25           
     25200   74.958966      23023.08       4705.3901      27728.47      -54.049382     -408.90003      150.32135      96.430538      0.0050273417   0.00504       -0.0020668148  -0.0021338745   0.0050273417  -0.0020689536  -0.0021361544   24.614637      6.7672324      4.955887       4.9012153     -22.193531      5.2475103      59.193535      52.60666       61.063844      1              190151.24      1.2622555      7438.68        16709.317     -4926.9306      97.133361     -845.78403      24372.249     -19821.584      3704.8808      25.2         
     25400   74.626408      22962.136      4684.5145      27646.65       81.161005     -78.811966     -161.66492      483.9599       0.0050671403   0.00508       -0.0024202327  -0.0030602701   0.0050671403  -0.0024231662  -0.0030649623   21.755885     -2.566962      -6.8787659     -4.5013104     -15.926767      3.1073416      59.195891      52.58803       61.007154      1              189914.98      1.2638257      7404.8932      16719.82      -4964.6657      92.931409     -860.36884      24393.002     -19823.477      3709.1565      25.4         
     25600   74.782682      23023.317      4694.3242      27717.641     -413.07626     -940.2996       71.936065     -370.86523      0.0051069374   0.00512       -0.0011234554  -0.0029610717   0.0051069374  -0.001124087   -0.0029654644   27.60454      -1.4569364      1.5854537      1.3590481     -24.068233      2.4401613      59.198247      52.65639       61.013224      1              190188.35      1.2620092      7438.0938      16707.766     -4900.1173      93.373177     -898.28968      24404.17      -19821.679      3684.2015      25.6         
     25800   75.556807      23001.158      4742.9183      27744.076      140.77354      158.35664     -95.079367      359.04336      0.0051467328   0.00516       -0.00056575962 -0.0041463039   0.0051467328  -0.00056591973 -0.0041549236   24.281989      4.7797511     -4.6041772      4.6299137     -17.978903      3.1734234      59.200603      52.685789      60.940695      1              190075.89      1.2627559      7396.3424      16734.956     -4948.3913      92.26458      -814.12609      24363.125     -19823.013      3725.9861      25.8         
     26000   74.410755      22999.148      4670.9773      27670.126      170.55913      276.4266      -401.43624      636.68703      0.0051865267   0.0052        -0.00077902609 -0.003686541    0.0051865267  -0.00077932968 -0.003693353    20.246075      2.1681628      2.3454119     -0.15071961    -24.284754      3.2841173      59.202959      52.674547      60.96883       1              190130.63      1.2623923      7408.6926      16747.176     -4942.42        94.346606     -873.71613      24387.122     -19822.053      3691.3529      26           
     26200   75.252601      22992.8        4723.8224      27716.622     -78.525331     -114.49186     -319.90908      198.82494      0.005226319    0.00524       -0.00029326148 -0.0033322678   0.005226319   -0.00029330449 -0.0033378322   33.772564     -0.1637504     -0.53682083    -3.576975      -30.226304     -0.95243334     59.205315      52.700154      60.990509      1              190298.27      1.2612802      7474.9962      16775.14      -5004.5292      92.382392     -905.56918      24381.621     -19821.241      3654.8109      26.2         
     26400   75.165923      23014.065      4718.3813      27732.446     -465.64843     -235.97603     -771.89233     -389.07695      0.0052661097   0.00528       -0.0024374127  -0.0023164885   0.0052661097  -0.002440388   -0.0023191757   31.896707      0.9823286     -5.9466343      7.1060293     -23.511811      4.7991712      59.20767       52.587124      61.052669      1              190091.22      1.262654       7454.7804      16699.732     -4901.5737      97.017544     -885.28971      24370.843     -19821.445      3664.1089      26.4         
     26600   74.988268      22964.519      4707.2294      27671.748      48.45693       456.34111     -277.09711     -33.873219      0.0053058988   0.00532       -0.0033363252  -0.00032864762  0.0053058988  -0.0033419031  -0.00032870164  20.485006     -2.3479166      8.5141807      7.749694      -21.359127      5.318401       59.210026      52.539737      61.174314      1              190305.9       1.2612296      7377.8449      16742.724     -4929.2685      93.216211     -835.6474       24337.042     -19821.393      3680.002       26.6         
     26800   74.482644      22985.725      4675.49        27661.215      42.17721      -586.76539      288.3848       424.91222      0.0053456863   0.00536       -0.0041778396  -0.0014156674   0.0053456863  -0.0041865912  -0.0014166704   21.779159     -4.7576771      4.4397773      3.0357195     -22.960088      8.2402867      59.212382      52.495376      61.107795      1              189946.02      1.2636192      7407.7426      16726.839     -4911.5956      90.144003     -854.96705      24349.995     -19822.433      3672.5952      26.8         
     27000   75.219755      23017.012      4721.7605      27738.773     -126.32774     -535.95648      113.34671      43.626562      0.0053854723   0.0054        -0.0023111949  -0.0036016277   0.0053854723  -0.0023138698  -0.0036081292   10.791757     -7.009521       0.89254908    -12.747653     -27.382127      9.759924       59.214738      52.593778      60.974026      1              189893.04      1.2639717      7441.8724      16693.587     -4920.299       90.043934     -847.12856      24381.803     -19822.867      3711.8077      27           
     27200   74.729944      23038.034      4691.0137      27729.047      217.66817      251.63164      450.54956     -49.176695      0.0054252566   0.00544       -0.00034670672 -0.0037873082   0.0054252566  -0.00034676684 -0.0037944982   28.170371      11.385904     -5.6870386     -3.7978757     -28.119192      1.5124405      59.217094      52.697337      60.962663      1              190239.06      1.2616728      7423.1178      16714.911     -4945.381       98.615878     -824.96965      24392.082     -19820.343      3746.7696      27.2         
     27400   74.546312      22979.119      4679.4866      27658.606     -78.587676      332.36579     -278.45666     -289.67216      0.0054650394   0.00548       -0.00086553391 -0.0023453421   0.0054650394  -0.0008659087  -0.0023480967   28.50117      -4.5913269     -3.0348616      3.7513404     -23.484205      14.779345      59.21945       52.669987      61.050904      1              190423.12      1.2604533      7419.1848      16707.342     -4953.3309      92.228969     -833.54949      24368.389     -19821.145      3713.6941      27.4         
     27600   74.985376      23039.893      4707.0479      27746.941      37.702584     -168.53993      66.81691       214.83077      0.0055048206   0.00552       -0.002692589   -0.0028631536   0.0055048206  -0.0026962205  -0.0028672602   33.799907      0.9671258      7.3526604     -2.3318876     -17.203801      2.5177537      59.221806      52.573672      61.019216      1              189983.81      1.2633679      7427.498       16717.082     -4931.8528      96.477524     -834.22922      24386.822     -19821.904      3730.6884      27.6         
[...]
     33200   74.960919      22996.688      4705.5127      27702.2       -540.42719     -400.55179     -505.98601     -714.74378      0.0066180523   0.00664       -0.0030290432  -0.0013798165   0.0066180523  -0.0030336401  -0.0013807693   32.227334      7.0819744      0.83548275    -8.6876839     -25.43237       2.7273482      59.28777       52.555936      61.109988      1              190414.09      1.260513       7395.0961      16702.79      -4899.4093      89.371762     -834.16599      24364.925     -19821.919      3708.8393      33.2         
     33400   74.646067      23058.978      4685.7485      27744.726      33.317514     -424.53417      300.40347      224.08324      0.0066577877   0.00668       -0.0028240941  -0.0028212894   0.0066577877  -0.0028280893  -0.0028252767   17.537273      1.8675922      10.235         9.3700967     -25.314996      10.715996      59.290126      52.56674       61.021778      1              190185.88      1.2620255      7447.3745      16770.081     -4922.1359      93.004255     -875.28143      24367.862     -19821.927      3670.6538      33.4         
     33600   75.390194      22994.38       4732.4595      27726.839     -105.491       -360.54876     -124.72841      168.80418      0.0066975214   0.00672       -0.0023038102  -0.0049872792   0.0066975214  -0.002306468   -0.0049997572   23.138014     -4.6965431     -9.3830922     -3.0209059     -24.40792       6.9759067      59.292482      52.594167      60.889232      1              189879.34      1.264063       7416.958       16725.868     -4911.8471      92.561706     -856.3177       24350.218     -19823.061      3670.8394      33.6         
     33800   75.113955      22990.503      4715.1192      27705.622     -33.896756     -221.95188     -317.79461      438.05623      0.0067372537   0.00676       -0.0026259367  -0.0041285649   0.0067372537  -0.0026293905  -0.004137111    23.056184      3.190604      -4.2501771      4.8675        -19.453518     -1.0151204      59.294837      52.577186      60.94178       1              189989.39      1.2633307      7388.3156      16692.495     -4874.8733      94.748507     -834.76173      24346.182     -19821.603      3689.8171      33.8         
     34000   75.015196      23031.306      4708.9198      27740.226      227.00016      222.00986     -117.63034      576.62095      0.0067769843   0.0068        -0.0037513809  -0.0034158676   0.0067769843  -0.003758435   -0.003421715    32.387982      0.87684943     3.9918489      5.9415479     -19.675045      5.5364025      59.297193      52.517858      60.985393      1              189918.37      1.2638032      7463.9457      16747.237     -4964.7721      92.035101     -857.90128      24371.45      -19820.689      3692.86        34           
     34200   75.742917      23018.822      4754.601       27773.423      139.82928     -204.14918      299.90668      323.73033      0.0068167133   0.00684       -0.0029940724  -0.0034443001   0.0068167133  -0.0029985636  -0.0034502453   30.271418     -6.2870941     -3.2443852     -1.3866226     -23.023701      6.18387        59.299549      52.557779      60.983653      1              190064.86      1.2628291      7459.4591      16695.221     -4905.6667      94.259953     -893.5305       24389.236     -19820.157      3675.5485      34.2         
     34400   74.805335      22988.837      4695.7462      27684.583     -319.68765     -644.71694     -76.271375     -238.07463      0.0068564408   0.00688       -0.0026215021  -0.0030592234   0.0068564408  -0.0026249443  -0.0030639124   30.975774      3.5823067      4.5077252     -3.3022089     -24.132489      2.9004683      59.301905      52.57742       61.007218      1              190216.92      1.2618196      7413.8288      16690.385     -4923.0342      90.871152     -838.25132      24375.887     -19820.849      3716.7866      34.4         
     34600   75.197906      23004.983      4720.3891      27725.372     -570.95577     -428.47354     -638.65702     -645.73674      0.0068961667   0.00692       -0.0018005661  -0.0031604893   0.0068961667  -0.0018021891  -0.0031654942   23.466735      1.2881136      1.9333264      0.78699756    -22.577283      1.3564706      59.304261      52.620696      61.001021      1              190361.71      1.2608599      7435.2103      16726.435     -4929.6744      94.761803     -861.5541       24363.05      -19823.246      3678.2505      34.6         
     34800   75.314742      23050.778      4727.7232      27778.501     -261.98234     -247.72571     -527.56008     -10.661231      0.006935891    0.00696       -0.0024280242  -0.0033024185   0.006935891   -0.0024309767  -0.0033078835   28.457443      0.91555144    -5.4015184     -5.1281481     -21.708083      4.2529616      59.306617      52.587619      60.992336      1              190222.52      1.2617825      7411.3514      16713.492     -4856.0486      93.250086     -852.52022      24363.673     -19822.42       3688.733       34.8         
     35000   75.294796      22990.88       4726.4711      27717.351     -251.14811     -447.27499     -253.89595     -52.273396      0.0069756137   0.007         -0.0040129834  -0.0025173063   0.0069756137  -0.004021057   -0.00252048     31.509763      0.27384788    -2.5737467     -2.1467697     -26.256585      7.0549853      59.308973      52.504067      61.04038       1              190077.44      1.2627455      7428.7796      16727.321     -4895.0175      89.015557     -882.10967      24344.369     -19821.478      3640.7812      35           
     35200   74.651347      23004.214      4686.08        27690.294     -121.48643     -21.967463     -531.9036       189.41178      0.0070153349   0.00704       -0.003869362   -0.0022902059   0.0070153349  -0.0038768673  -0.0022928324   33.226238     -5.1461411      9.2223418     -7.1877731     -26.008058      7.2346588      59.311329      52.511638      61.054278      1              190155.69      1.2622259      7492.1066      16725.056     -4935.3409      90.963105     -920.1778       24375.519     -19823.912      3631.4289      35.2         
     35400   75.311017      23057.47       4727.4893      27784.959     -675.21855     -1187.6702     -868.07533      30.089874      0.0070550545   0.00708       -0.0017964158  -0.003154083    0.0070550545  -0.0017980313  -0.0031590676   30.206062     -8.2581598     -4.221181       2.4170352     -25.008768      9.1630983      59.313684      52.620915      61.001413      1              190393.97      1.2606462      7380.5762      16795.481     -4810.7318      97.540111     -946.72665      24363.008     -19821.677      3594.6043      35.4         
     35600   75.025485      23008.533      4709.5657      27718.099     -145.43117     -834.26522      140.56251      257.40919      0.0070947725   0.00712       -0.0017208334  -0.0044084281   0.0070947725  -0.0017223157  -0.0044181739   41.647205      16.879539      5.4609536      0.39087874    -27.863625      13.591411      59.31604       52.624899      60.924654      1              190176.35      1.2620888      7478.1485      16645.065     -4887.2518      91.108463     -858.31799      24361.642     -19821.861      3681.4636      35.6         
     35800   74.699162      23003.931      4689.0815      27693.012     -258.0642      -644.01789     -410.03543      279.86073      0.0071344889   0.00716       -0.0026417526  -0.0054931154   0.0071344889  -0.0026452482  -0.005508258    35.423754     -2.8401111     -4.7169738     -0.089096222   -23.687672      6.7146326      59.318396      52.576352      60.858277      1              189801.44      1.2645818      7417.1363      16717.255     -4878.68        92.244292     -872.03414      24351.26      -19823.25       3655.9758      35.8         
     36000   74.809387      23031.427      4696.0006      27727.428     -346.43428     -674.74787     -36.025182     -328.5298       0.0071742037   0.0072        -0.0021383627  -0.0039918058   0.0071742037  -0.0021406523  -0.0039997944   36.135031     -4.9589252     -2.596713       2.0095877     -20.484208      6.6388112      59.320752      52.602889      60.950149      1              190191.46      1.2619885      7493.2014      16691.33      -4895.5283      87.768578     -883.63682      24359.97      -19821.677      3654.6561      36           
     36200   75.494039      23028.479      4738.9782      27767.458     -13.603808     -336.27705     -47.399295      342.86492      0.007213917    0.00724       -0.0017491774  -0.0034113634   0.007213917   -0.001750709   -0.0034171954   37.75615       1.4865188     -1.4787494      0.47212888    -24.750372      5.4761483      59.323108      52.623405      60.985669      1              190384.08      1.2607117      7450.5869      16721.782     -4924.0825      92.765909     -871.99947      24380.704     -19821.278      3687.4267      36.2         
     36400   75.329293      22985.955      4728.6366      27714.591      68.438071     -254.80255      349.13842      110.97834      0.0072536287   0.00728       -0.0027422344  -0.0039540576   0.0072536287  -0.0027460012  -0.0039618955   47.339065      6.3505131      4.640274       2.0556878     -23.289318      6.5401282      59.325464      52.571055      60.952459      1              190098.67      1.2626045      7459.8509      16751.293     -4947.592       89.813204     -879.98829      24334.378     -19821.799      3632.59        36.4         
     36600   74.920601      22981.584      4702.9818      27684.565     -272.95379     -464.13893     -572.52757      217.80514      0.0072933388   0.00732       -0.0019854578  -0.0038128074   0.0072933388  -0.0019874315  -0.0038200947   28.529479     -13.976497     -10.050119      0.57749384    -25.942956      6.4417014      59.32782       52.610949      60.961103      1              190277.46      1.2614182      7399.6626      16751.704     -4936.5121      93.72631      -876.18382      24369.625     -19820.438      3673.0027      36.6         
     36800   75.493074      23042.572      4738.9176      27781.489      61.574381     -78.752472     -103.68272      367.15833      0.0073330474   0.00736       -0.0026039623  -0.0037159901   0.0073330474  -0.0026073585  -0.0037229116   41.475013      14.513827      17.020533     -0.52003196    -25.225987      2.428479       59.330175      52.578344      60.967028      1              190185.57      1.2620276      7486.9231      16737.06      -4935.1499      90.579164     -857.51626      24341.135     -19820.46       3663.1593      36.8         
     37000   75.045964      22994.642      4710.8512      27705.493     -360.02186     -679.98914     -129.86844     -270.20801      0.0073727543   0.0074        -0.0038534772  -0.003927079    0.0073727543  -0.0038609209  -0.0039348102   21.31081      -2.5476951     -13.580946      0.10118413    -21.001673      7.7593944      59.332531      52.512475      60.95411       1              189914.6       1.2638282      7427.5968      16675.322     -4904.8547      93.788037     -827.44299      24351.603     -19821.371      3702.7896      37           
     37200   74.819854      23011.146      4696.6577      27707.804     -413.76848     -428.8087      -767.11305     -45.383685      0.0074124597   0.00744       -0.0043689344  -0.0025465475   0.0074124597  -0.0043785061  -0.0025497955   30.497824     -5.2627351      4.4634758     -1.3992189     -25.72616       6.6341023      59.334887      52.485303      61.038591      1              190086.96      1.2626823      7474.507       16753.228     -4924.7991      90.190383     -906.10443      24343.983     -19819.859      3618.0196      37.2         
     37400   75.716176      23036.731      4752.9223      27789.653      257.24469     -358.01719      420.38919      709.36207      0.0074521635   0.00748       -0.0033682725  -0.002357227    0.0074521635  -0.0033739579  -0.0023600096   40.004017     -3.6880095     -1.5199782      0.48150427    -27.380509      5.639697       59.337243      52.538053      61.050176      1              190321.68      1.2611251      7431.5951      16742.854     -4912.6717      92.23397      -852.26572      24357.02      -19822.035      3682.7191      37.4         
     37600   75.058012      22999.363      4711.6075      27710.97      -238.65343     -787.02809      241.16154     -170.09375      0.0074918658   0.00752       -0.0033321791  -0.0030687902   0.0074918658  -0.0033377432  -0.0030735086   28.174991      6.4897686      3.0058156     -0.24203815    -24.929797      5.8685305      59.339599      52.539956      61.006633      1              190200.37      1.2619294      7430.5839      16669.561     -4894.8201      93.172864     -815.10307      24337.886     -19821.918      3700.8658      37.6         
     37800   74.491734      23022.017      4676.0606      27698.077     -276.83567     -933.84006      159.78601     -56.452961      0.0075315664   0.00756       -0.0027149908  -0.003626673    0.0075315664  -0.0027186831  -0.0036332653   32.496164     -6.4957438      0.13521178     5.9845817     -22.324108      2.6366118      59.341955      52.572491      60.972493      1              190219.21      1.2618045      7462.976       16694.002     -4950.8548      95.274291     -815.66174      24359.178     -19822.897      3720.6196      37.8         
     38000   75.53547       23041.382      4741.5789      27782.961     -88.151597     -601.36415      535.90684     -198.99748      0.0075712655   0.0076        -0.0014781333  -0.0045188805   0.0075712655  -0.0014792268  -0.0045291215   24.851975      1.6525338      1.9697611      1.9916931     -20.630237      4.9954441      59.344311      52.637693      60.917895      1              190292.13      1.2613209      7538.8253      16715.004     -4954.6047      90.080505     -893.99976      24368.788     -19822.71       3652.0776      38           
     38200   75.566871      22987.64       4743.5501      27731.19      -273.45273     -22.572053     -364.62456     -433.16159      0.007610963    0.00764       -0.0014212866  -0.0050792151   0.007610963   -0.0014222976  -0.0050921581   41.229252      6.1885045     -8.7818179     -6.2137595     -28.683013      10.30632       59.346667      52.64069       60.883606      1              190203.4       1.2619093      7431.6897      16663.591     -4886.2924      91.958659     -869.67213      24377.505     -19821.14       3686.6927      38.2         
     38400   74.596153      23032.689      4682.6153      27715.304     -545.21227     -198.32972     -578.87331     -858.43377      0.0076506589   0.00768       -0.0018298565  -0.0030946269   0.0076506589  -0.0018315328  -0.0030994252   33.13349      -3.6180112      1.0545862      3.2328919     -19.252214      7.6353882      59.349022      52.619152      61.005052      1              190512.38      1.2598627      7455.2699      16687.68      -4846.2228      88.078099     -883.13767      24353.326     -19822.304      3647.8843      38.4         
     38600   74.793478      23083.768      4695.002       27778.77      -592.50424     -858.43761     -621.79903     -297.27607      0.0076903533   0.00772       -0.002198524   -0.0022358388   0.0076903533  -0.0022009443  -0.002238342    33.645533      6.4214984      4.6855095     -5.3155599     -16.940213      6.5533417      59.351378      52.599717      61.057605      1              190613.64      1.2591934      7444.8793      16738.413     -4901.8047      89.298846     -829.00424      24364.306     -19822.32       3712.9817      38.6         
     38800   75.830593      23004.202      4760.1046      27764.307     -10.979458     -419.18544      255.36325      130.88382      0.0077300461   0.00776       -0.0036657496  -0.0034043173   0.0077300461  -0.0036724849  -0.0034101252   39.226667     -5.1449513     -4.7386843      0.22123033    -20.854015      0.55837452     59.353734      52.522372      60.9861        1              190118         1.2624761      7440.8442      16704.319     -4931.3087      92.572182     -834.04044      24353.346     -19821.53       3697.7754      38.8         
     39000   74.481421      23029.641      4675.4132      27705.055     -343.8117      -828.66516     -46.552467     -156.21747      0.0077697373   0.0078        -0.0034232474  -0.0032157777   0.0077697373  -0.0034291201  -0.0032209594   26.956645     -1.7641881      2.8164056     -7.3449472     -24.468252      13.590986      59.35609       52.535155      60.997638      1              190207.8       1.2618801      7483.3364      16697.087     -4913.1869      94.842275     -847.75182      24337.188     -19821.873      3667.5629      39           
     39200   75.00701       23044.321      4708.406       27752.727      237.41018     -18.698698      409.52179      321.40744      0.0078094269   0.00784       -0.0041949197  -0.0021633478   0.0078094269  -0.0042037431  -0.0021656913   37.690563      2.6033893      0.036456839    3.2803506     -21.339425      8.6280596      59.358446      52.494476      61.062041      1              190268.74      1.261476       7443.8805      16703.881     -4938.7911      94.976904     -806.30195      24368.429     -19821.753      3740.3734      39.2         
     39400   75.195732      23037.643      4720.2526      27757.896      368.87015      334.86318      287.17536      484.5719       0.0078491149   0.00788       -0.0034421049  -0.0019783501   0.0078491149  -0.0034480426  -0.0019803096   34.434853     -9.9528811     -0.5030182     -1.2162259     -25.041552      7.1629168      59.360802      52.534161      61.073361      1              190455.44      1.2602393      7506.3011      16677.41      -4883.5689      99.16499      -884.39064      24344.488     -19821.761      3638.336       39.4         
     39600   74.936466      22987.633      4703.9777      27691.61      -169.65478     -347.60186     -372.55515      211.19267      0.0078888014   0.00792       -0.0023438869  -0.0033744206   0.0078888014  -0.0023466381  -0.0033801268   35.636962      8.2321798      3.8267345     -3.8745899     -19.163301      5.9785276      59.363158      52.592054      60.98793       1              190406.17      1.2605654      7450.6165      16707.883     -4921.7426      88.414927     -839.75059      24325.187     -19822.975      3662.4605      39.6         
     39800   75.282618      23025.452      4725.7067      27751.159     -722.79433     -565.36645     -900.57977     -702.43676      0.0079284863   0.00796       -0.0024518413  -0.0034252036   0.0079284863  -0.002454852   -0.003431083    39.903888      6.0936896     -5.3105553      0.74561619    -32.877274      6.5612916      59.365514      52.586364      60.984822      1              190383.42      1.2607161      7469.2049      16736.215     -4942.4408      95.327401     -854.4863       24344.683     -19823.051      3667.145       39.8         
     40000   75.125467      22945.175      4715.8418      27661.017     -238.47507     -577.27862     -34.1561       -103.9905       0.0079681696   0.008         -0.0051107335  -0.002890486    0.0079681696  -0.005123838   -0.0028946715   34.465293     -6.407684      -2.8905218     -0.067716715   -20.890102      3.7234824      59.367869      52.446198      61.017544      1              189985.39      1.2633574      7450.5655      16703.076     -4992.3708      95.921618     -854.78568      24365.362     -19822.593      3687.9833      40           
     40200   74.101268      23044.319      4651.5499      27695.869     -327.0381      -409.47133     -155.44591     -416.19708      0.0080078514   0.00804       -0.0050725389  -0.0026088928   0.0080078514  -0.0050854479  -0.0026123019   29.633692     -1.6909974      5.5418556     -1.5969897     -24.919839      3.7997063      59.370225      52.448212      61.034776      1              190053.88      1.2629021      7435.3996      16763.627     -4882.9751      93.641638     -897.5401       24353.49      -19821.324      3634.6263      40.2         
     40400   74.688255      23035.587      4688.3968      27723.984    