thermo_style   custom step temp pe ke etotal press pxx pyy pzz v_etrue v_eengx v_eengy v_eengz v_etruex v_etruey v_etruez                f_sxx_ave f_syy_ave f_szz_ave f_sxy_ave f_sxz_ave f_syz_ave lx ly lz v_dir vol density ebond eangle edihed                eimp evdwl ecoul elong epair v_Time

restart        ${nsteps} rst1.a.${myid} rst2.a.${myid}
restart        200 rst1.a.${myid} rst2.a.${myid}
restart        200 rst1.a.tensile_1_EPON_862_pxld_86.8_replicate_4_FF_PCFF_temp_150 rst2.a.${myid}
restart        200 rst1.a.tensile_1_EPON_862_pxld_86.8_replicate_4_FF_PCFF_temp_150 rst2.a.tensile_1_EPON_862_pxld_86.8_replicate_4_FF_PCFF_temp_150
dump           6 all atom 10000 dump.${myid} #every picosecond
dump           6 all atom 10000 dump.tensile_1_EPON_862_pxld_86.8_replicate_4_FF_PCFF_temp_150 
dump_modify    6 scale no sort id

#-------------------Run-------------------
run            ${steps}
run            750000

CITE-CITE-CITE-CITE-CITE-CITE-CITE-CITE-CITE-CITE-CITE-CITE-CITE

Your simulation uses code contributions which should be cited:

- Type Label Framework: https://doi.org/10.1021/acs.jpcb.3c08419

@Article{Gissinger24,
 author = {Jacob R. Gissinger, Ilia Nikiforov, Yaser Afshar, Brendon Waters, Moon-ki Choi, Daniel S. Karls, Alexander Stukowski, Wonpil Im, Hendrik Heinz, Axel Kohlmeyer, and Ellad B. Tadmor},
 title = {Type Label Framework for Bonded Force Fields in LAMMPS},
 journal = {J. Phys. Chem. B},
 year =    2024,
 volume =  128,
 number =  13,
 pages =   {3282–-3297}
}

CITE-CITE-CITE-CITE-CITE-CITE-CITE-CITE-CITE-CITE-CITE-CITE-CITE

PPPM initialization ...
  using 12-bit tables for long-range coulomb (../kspace.cpp:342)
  G vector (1/distance) = 0.18059947
  grid = 15 15 15
  stencil order = 5
  estimated absolute RMS force accuracy = 0.022791104
  estimated relative force accuracy = 6.8634732e-05
  using double precision KISS FFT
  3d grid and FFT values/proc = 1521 256
Generated 66 of 66 mixed pair_coeff terms from sixthpower/sixthpower mixing rule
Neighbor list info ...
  update: every = 1 steps, delay = 0 steps, check = yes
  max neighbors/atom: 5000, page size: 100000
  master list distance cutoff = 14
  ghost atom cutoff = 14
  binsize = 7, bins = 9 8 9
  1 neighbor lists, perpetual/occasional/extra = 1 0 0
  (1) pair lj/class2/coul/long, perpetual
      attributes: half, newton on
      pair build: half/bin/newton
      stencil: half/bin/3d
      bin: standard
WARNING: Inconsistent image flags (../domain.cpp:1051)
Per MPI rank memory allocation (min/avg/max) = 19.46 | 19.52 | 19.85 Mbytes
   Step          Temp          PotEng         KinEng         TotEng         Press           Pxx            Pyy            Pzz          v_etrue        v_eengx        v_eengy        v_eengz        v_etruex       v_etruey       v_etruez      f_sxx_ave      f_syy_ave      f_szz_ave      f_sxy_ave      f_sxz_ave      f_syz_ave          Lx             Ly             Lz           v_dir          Volume        Density         E_bond        E_angle        E_dihed        E_impro         E_vdwl         E_coul         E_long         E_pair         v_Time    
         0   149.41257      27887.249      9379.0572      37266.306     -216.89071     -195.47004     -60.705437     -394.49667      0              4.8039121e-16 -1.3368999e-16  0              4.4408921e-16 -1.110223e-16   0              0              0              0              0              0              0              59.163675      53.148536      61.230768      1              192537.87      1.246609       9223.4591      18584.813     -4281.0775      197.65467     -504.94712      24460.346     -19792.999      4162.3997      0            
       200   150.27751      27737.079      9433.3521      37170.431      807.00076      821.8664       813.98567      785.15021      3.99992e-05    4e-05          0.00037004395 -0.0022526243   3.99992e-05    0.0003699755  -0.0022551653   6.0145062     -16.3209        12.365902      16.50513      -23.815743     -0.82516358     59.166042      53.168203      61.092839      1              192182.93      1.2489114      9042.424       18483.582     -4210.4918      189.89085     -422.58085      24447.552     -19793.297      4231.6744      0.2          
       400   149.06765      27759.916      9357.4056      37117.322     -419.84658     -200.35625     -238.60195     -820.58153      7.99968e-05    8e-05          0.0015191385  -0.0041484482   7.99968e-05    0.0015179857  -0.0041570769   12.77712       18.375361     -1.4653875      7.9093992     -19.999737      16.445707      59.168408      53.229276      60.976756      1              192045.78      1.2498033      9072.1274      18509.086     -4164.4226      201.2041      -520.49767      24456.686     -19794.268      4141.9209      0.4          
       600   150.70368      27808.993      9460.1037      37269.096     -276.09553     -705.92751      168.78098     -291.14006      0.0001199928   0.00012        0.0011810766  -0.0041703897   0.0001199928   0.0011803797  -0.00417911    -17.577577     -2.9851932     -20.439418      13.235639     -22.352317      7.3502246      59.170775      53.211308      60.975412      1              191984.4       1.2502028      9147.7643      18521.513     -4233.316       200.62326     -459.07462      24425.403     -19793.921      4172.4081      0.6          
       800   150.07411      27751.076      9420.5838      37171.66       62.566723      89.783892     -319.24447      417.16075      0.0001599872   0.00016        0.001123837   -0.0025940216   0.0001599872   0.001123206   -0.0025973919  -5.0027041     -0.26603052     10.026951      18.727831     -33.504225      17.655078      59.173141      53.208266      61.071935      1              192285         1.2482484      9191.6026      18489.319     -4234.6042      198.24207     -541.92157      24442.777     -19794.34       4106.5163      0.8          
      1000   152.10725      27790.103      9548.2102      37338.314      461.90664      459.94567      769.58123      156.19303      0.00019998     0.0002         0.0019422452  -0.0023601566   0.00019998     0.0019403615  -0.0023629461   10.055863     -9.6400436     -1.5720584      20.801466     -16.38926       2.5436949      59.175508      53.251763      61.086254      1              192495.01      1.2468865      9082.7006      18561.432     -4237.65        200.21111     -468.9765       24449.131     -19796.745      4183.4097      1            
      1200   150.54259      27821.345      9449.9917      37271.336     -706.73855     -563.47407     -222.48321     -1334.2584      0.0002399712   0.00024        0.0019917923  -0.0034564932   0.0002399712   0.0019898113  -0.0034624807   5.887122       15.573678      5.3993782      10.433731     -25.000054      20.089216      59.177874      53.254397      61.019125      1              192300.67      1.2481466      9220.1565      18559.843     -4251.786       197.78567     -553.30425      24443.277     -19794.628      4095.345       1.2          
      1400   149.4842       27769.819      9383.5534      37153.372      710.99679      153.83269      1349.4301      629.72762      0.00027996081  0.00028        0.00056293898 -0.0041495      0.00027996081  0.00056278059 -0.0041581331   14.432693      0.10288867    -8.9563686      7.623656      -25.795993      19.127504      59.180241      53.178455      60.976691      1              191900.59      1.2507489      9206.8209      18464.999     -4335.1201      196.95374     -385.17749      24418.334     -19796.991      4236.1653      1.4          
      1600   150.59004      27833.265      9452.9703      37286.235     -420.15415     -848.76677     -143.6884      -268.00728      0.00031994881  0.00032        0.0015208882  -0.0024007979   0.00031994881  0.0015197328  -0.0024036844  -9.3921511     -7.9163394      0.86089142     4.4804176     -17.277342      25.883484      59.182607      53.229369      61.083766      1              192429.31      1.2473123      9076.0769      18573.409     -4157.3683      192.60447     -440.81927      24385.636     -19796.274      4148.5428      1.6          
      1800   149.79395      27859.251      9402.9972      37262.248      69.976917     -397.19051      163.59877      443.52248      0.00035993522  0.00036        0.00081493835 -0.0026067017   0.00035993522  0.00081460647 -0.0026101051   21.974223      9.0028416      3.5118584      7.1876015     -17.562419      10.173877      59.184974      53.191849      61.071158      1              192261.67      1.2483999      9201.4973      18578.875     -4284.2242      206.64061     -470.59744      24424.878     -19797.818      4156.4625      1.8          
      2000   149.01962      27804.987      9354.3903      37159.377      148.73013      610.15456     -381.32656      217.36238      0.00039992002  0.0004         2.1861623e-06 -0.0012242633   0.00039992002  2.1861599e-06 -0.0012250134  -9.0064197     -10.560514     -17.932213      7.3538747     -15.412929      19.004045      59.18734       53.148652      61.155806      1              192379.49      1.2476353      9199.4633      18536.582     -4249.53        193.71873     -470.91246      24391.674     -19796.01       4124.7522      2            
      2200   151.02113      27815.533      9480.0312      37295.564     -313.2898      -5.0929957     -491.63788     -443.13852      0.00043990323  0.00044       -0.0010597026   4.4445669e-06  0.00043990323 -0.0010602645   4.4445571e-06  14.737323      11.249333      17.863714      16.462568     -25.190789      10.492384      59.189707      53.092214      61.231041      1              192419.32      1.247377       9140.4831      18479.019     -4165.5328      201.06688     -473.03014      24428.512     -19794.985      4160.4972      2.2          
      2400   150.21513      27813.473      9429.436       37242.909     -607.39326     -439.79412     -312.66602     -1069.7196      0.00047988484  0.00048       -0.0016097738  -0.00071147163  0.00047988484 -0.0016110709  -0.00071172484  20.167221     -2.0633174      5.1803371      17.983447     -19.20053       10.830463      59.192074      53.062979      61.187204      1              192183.36      1.2489085      9167.8018      18454.861     -4130.1872      201.04456     -479.72577      24394.482     -19794.803      4119.9531      2.4          
      2600   149.70859      27817.257      9397.6393      37214.897     -474.51134      132.06245     -640.21847     -915.37801      0.00051986485  0.00052       -3.0510997e-05 -0.00070616697  0.00051986485 -3.0511463e-05 -0.00070641642  14.056581     -16.196074     -9.6786809      1.0964592     -20.373997      19.870406      59.19444       53.146914      61.187529      1              192496.08      1.2468796      9097.681       18549.605     -4156.6035      201.33697     -513.76998      24434.322     -19795.314      4125.2382      2.6          
      2800   150.73336      27855.93       9461.9667      37317.896     -70.985052     -290.11833     -280.07232      357.23549      0.00055984326  0.00056       -0.00025108129 -0.0011841311   0.00055984326 -0.00025111282 -0.0011848327   15.127115      19.637975      8.8473452      0.68409608    -12.989866      15.081683      59.196807      53.135191      61.158263      1              192369.26      1.2477016      9211.6886      18500.093     -4229.4305      199.63831     -480.67868      24448.697     -19794.078      4173.9402      2.8          
      3000   150.51002      27721.197      9447.947       37169.144     -511.47709     -801.33624     -236.62108     -496.47394      0.00059982007  0.0006        -0.0012976545  -0.0020732374   0.00059982007 -0.0012984972  -0.0020753896   4.9968797     -0.15510149    -2.0722928      12.998006     -25.381338      16.102733      59.199173      53.079568      61.103823      1              192004.5       1.250072       9113.8792      18482.723     -4171.75        200.58486     -553.32873      24443.58      -19794.492      4095.7597      3            
      3200   149.82761      27791.413      9405.1106      37196.524      205.47335     -357.07379      407.95304      565.5408       0.00063979529  0.00064       -0.0016693891  -0.0022953064   0.00063979529 -0.0016707841  -0.0022979447   1.48886       -7.8208426     -10.8728        7.8658958     -19.269233      12.845872      59.20154       53.05981       61.090225      1              191897.99      1.2507658      9224.3774      18479.307     -4254.8352      198.53128     -507.67941      24445.466     -19793.754      4144.0326      3.2          
      3400   150.67111      27822.014      9458.059       37280.073      170.01214      725.26889     -319.17505      103.94258      0.0006797689   0.00068       -0.0014369991  -0.0015759156   0.0006797689  -0.0014380326  -0.0015771587   9.6006539     -2.0295792      10.134346      17.933004     -16.949241      20.23557       59.203906      53.072162      61.134274      1              192088.74      1.2495238      9229.1307      18483.953     -4219.7242      193.70195     -514.46856      24443.624     -19794.203      4134.9529      3.4          
      3600   149.48729      27876.311      9383.7473      37260.058     -705.63636     -886.75366     -648.25835     -581.89705      0.00071974092  0.00072       -0.00010066015 -0.0018539628   0.00071974092 -0.00010066522 -0.0018556835   4.7586399     -6.0032223      4.425821       1.7881091     -20.748686      9.884546       59.206273      53.143186      61.117249      1              192299.92      1.2481515      9241.6205      18571.456     -4195.1659      190.19609     -550.24676      24412.743     -19794.292      4068.2042      3.6          
      3800   149.06589      27906.777      9357.2949      37264.072     -575.48944     -661.60962     -503.45212     -561.40657      0.00075971135  0.00076        0.00083933111 -0.0026055994   0.00075971135  0.00083897907 -0.0026089999   5.8932517      5.3163725     -6.3862489      7.8089214     -24.077676      25.885854      59.208639      53.193145      61.071226      1              192343.44      1.2478691      9181.6445      18654.417     -4298.9335      202.25651     -458.30381      24421.863     -19796.166      4167.393       3.8          
      4000   150.82815      27767.311      9467.9174      37235.228     -518.40739     -521.78131     -478.10071     -555.34014      0.00079968017  0.0008         0.00060687634 -0.00083530308  0.00079968017  0.00060669227 -0.00083565214  3.3201651      6.4407153     -11.134756      8.1036903     -17.242701      18.359874      59.211006      53.180791      61.179622      1              192647.78      1.2458977      9109.2338      18505.322     -4214.1612      194.27243     -436.58353      24405.043     -19795.816      4172.6442      4            
      4200   149.22944      27822.307      9367.5615      37189.868     -267.17393      596.05692     -758.44881     -639.1299       0.0008396474   0.00084        0.00020514047 -0.0020977039   0.0008396474   0.00020511943 -0.0020999071  -3.7861768     -8.6514185      23.971142      6.9599095     -26.497655      8.18485        59.213372      53.159439      61.102324      1              192334.82      1.247925       9115.7889      18562.959     -4203.2672      194.03355     -474.30339      24423.338     -19796.242      4152.7927      4.2          
      4400   150.67203      27903.151      9458.117       37361.268     -810.04703     -1231.4268     -402.43988     -796.2744       0.00087961303  0.00088        0.0011053887  -0.004181568    0.00087961303  0.0011047782  -0.0041903352  -1.3155497     -13.468241     -4.3426895      14.959061     -20.811754      20.759931      59.215739      53.207286      60.974728      1              192113.61      1.249362       9207.6359      18559.211     -4143.6415      201.69719     -580.88052      24456.59      -19797.461      4078.2477      4.4          
      4600   149.86233      27848.268      9407.2898      37255.558     -563.25401      543.86582     -1523.9237     -709.70415      0.00091957706  0.00092        0.0020191966  -0.0049237964   0.00091957706  0.0020171608  -0.0049359582  -1.9725577      11.568268     -11.975346      15.061438     -22.664233      13.127128      59.218106      53.255853      60.929281      1              192153.33      1.2491037      9183.6169      18500.045     -4180.9897      183.3291      -465.31797      24422.958     -19795.374      4162.2666      4.6          
      4800   150.63389      27773.009      9455.723       37228.732      268.09413      85.181768     -381.56065      1100.6613      0.00095953949  0.00096        0.0014404819  -0.0043199934   0.00095953949  0.0014394454  -0.0043293516   10.473852      7.9188088     -0.14045306     12.778505     -22.683851      13.44301       59.220472      53.225095      60.966252      1              192166.56      1.2490177      9167.9228      18493.025     -4246.2925      186.69903     -461.66681      24429.671     -19796.349      4171.6553      4.8          
      5000   150.49209      27771.356      9446.8219      37218.178      276.51552     -813.23197      577.61039      1065.1681      0.00099950033  0.001         -9.892709e-05  -0.0043779289   0.00099950033 -9.8931983e-05 -0.0043875401   12.548149      7.0357618      7.2472601      10.101758     -22.255699      14.259086      59.222839      53.143278      60.962704      1              191867.66      1.2509635      9148.2726      18503.982     -4238.8825      195.21611     -486.54205      24446.727     -19797.416      4162.7687      5            
      5200   150.27625      27910.569      9433.2726      37343.842      272.54968     -94.51261       1146.6752     -234.51358      0.0010394596   0.00104       -0.0011700437  -0.0027071633   0.0010394596  -0.0011707287  -0.0027108343   9.3619837     -8.3611287     -20.332141      2.7383488     -26.511161      14.8723        59.225205      53.08635       61.065007      1              191991.43      1.250157       9161.7223      18569.183     -4208.8791      193.55416     -429.24875      24421.491     -19797.254      4194.9886      5.2          
      5400   149.09586      27794.572      9359.1763      37153.748      681.85704      577.70281      361.85671      1106.0116      0.0010794172   0.00108       -0.0010712159  -0.00084706691  0.0010794172  -0.00107179    -0.00084742588  7.2060281      4.4805178      7.6490922      2.4357922     -16.223529      20.182759      59.227572      53.091602      61.178902      1              192376.24      1.2476563      9253.6099      18522.873     -4319.0747      196.93869     -487.18176      24421.914     -19794.507      4140.2253      5.4          
      5600   149.49781      27868.302      9384.4077      37252.709     -146.75057      272.94027     -789.13114      75.93917       0.0011193733   0.00112       -0.0018701744  -0.00016330329  0.0011193733  -0.0018719254  -0.00016331663  12.398368      2.1710279     -0.13218894     10.20558      -23.311967      16.946646      59.229938      53.049139      61.220769      1              192361.61      1.2477513      9073.2319      18513.366     -4146.2854      201.39114     -402.25497      24424.818     -19795.965      4226.5983      5.6          
      5800   150.56874      27843.009      9451.6336      37294.642     -869.4793      -596.24074     -476.88937     -1535.3078      0.0011593277   0.00116       -0.0016153894   0.00072536013  0.0011593277  -0.0016166955   0.00072509719  13.28867      -10.197196     -2.5233933      15.304682     -11.059706      15.876032      59.232305      53.06268       61.275183      1              192589.42      1.2462753      9103.4933      18533.31      -4120.0984      199.40263     -491.04923      24414.285     -19796.334      4126.9016      5.8          
      6000   150.0919       27770.477      9421.7007      37192.178     -882.97233     -1373.5274     -641.76569     -633.62386      0.0011992806   0.0012        -0.0018822677  -0.00022877538  0.0011992806  -0.0018840414  -0.00022880156  24.107446      7.7849889      15.717298      4.6239869     -25.98792       14.555581      59.234671      53.048496      61.21676       1              192362.05      1.2477484      9047.6955      18487.341     -4070.7658      199.33592     -506.7038       24411.073     -19797.499      4106.8708      6            
      6200   149.03975      27696.754      9355.6544      37052.408      301.76859      127.98754      221.21338      556.10486      0.0012392318   0.00124       -0.0011180175  -0.001662406    0.0012392318  -0.001118643   -0.0016637893   5.0327268     -5.0121781     -3.6221367      6.3159323     -24.519027      18.675387      59.237038      53.089115      61.128978      1              192240.97      1.2485343      9146.9824      18530.135     -4240.055       191.82579     -557.1491       24422.551     -19797.536      4067.8654      6.2          
      6400   150.30483      27807.945      9435.067       37243.012      89.993685      14.342399      235.73997      19.898689      0.0012791815   0.00128       -0.00077438343 -0.0026825666   0.0012791815  -0.00077468342 -0.0026861711   28.074257     -1.1563411      0.10669614     10.15281      -21.732189      4.8387455      59.239404      53.107379      61.066513      1              192118.27      1.2493317      9154.2186      18561.934     -4147.9867      201.64927     -598.72126      24434.754     -19797.904      4038.129       6.4          
      6600   150.6283       27808.126      9455.3723      37263.498     -561.02219     -804.14836     -344.94249     -533.97571      0.0013191296   0.00132        0.00010241906 -0.0020873653   0.0013191296   0.00010241382 -0.0020895469   9.3800271     -11.956877     -13.464079      11.710456     -24.654587      20.156631      59.241771      53.153979      61.102957      1              192409.3       1.247442       9213.3598      18495.718     -4272.3455      199.83391     -480.65705      24448.246     -19796.03       4171.5598      6.6          
      6800   149.81561      27786.191      9404.3569      37190.548     -253.4223      -362.7763      -118.04404     -279.44656      0.001359076    0.00136        0.00073284518 -0.0020597136   0.001359076    0.00073257678 -0.0020618377   32.681313      11.249645      8.3314442      6.8265693     -10.985324      10.870122      59.244138      53.187486      61.104651      1              192543.61      1.2465718      9155.8529      18537.675     -4198.0263      203.35678     -530.42135      24415.169     -19797.415      4087.3327      6.8          
      7000   148.71486      27831.009      9335.26        37166.269     -264.36842      256.2101      -450.56757     -598.74779      0.0013990209   0.0014         2.251872e-05  -0.002544077    0.0013990209   2.2518466e-05 -0.0025473186   15.688226      11.763562      2.4621253      9.2085644     -16.743555      16.640087      59.246504      53.149733      61.074993      1              192321.23      1.2480132      9125.3782      18537.168     -4180.2523      199.70752     -485.01516      24429.138     -19795.114      4149.0081      7            
      7200   150.44419      27900.591      9443.8152      37344.406      129.34234      169.52537     -95.589461      314.0911       0.0014389642   0.00144       -0.00070381699 -0.0020260329   0.0014389642  -0.00070406478 -0.0020280881   11.384346     -7.0483146      4.8954623      16.095308     -11.815329      14.99648       59.248871      53.111129      61.106713      1              192289.04      1.2482221      9154.3573      18598.245     -4217.9742      198.22545     -479.05391      24441.297     -19794.506      4167.7371      7.2          
      7400   149.6332       27801.56       9392.9069      37194.467      397.45872      529.20884      516.00132      147.166        0.0014789059   0.00148       -0.0012262672  -0.0016367416   0.0014789059  -0.0012270197  -0.0016380825   6.1737251     -4.7769892     -12.499719      11.307244     -24.377262      14.088121      59.251237      53.083362      61.13055       1              192271.16      1.2483382      9195.2969      18596.982     -4273.4278      196.32685     -510.70563      24393.287     -19796.199      4086.3827      7.4          
      7600   148.82553      27865.592      9342.207       37207.799     -249.35665     -849.37563     -219.39284      320.69853      0.001518846    0.00152       -0.00052317547 -0.0012736399   0.001518846   -0.00052331237 -0.0012744517   12.113472     -5.2182644      6.9546634      3.5617115     -27.814177      12.177717      59.253604      53.12073       61.152783      1              192484.17      1.2469568      9168.2196      18559.154     -4196.1831      189.76493     -440.8927       24381.311     -19795.782      4144.6365      7.6          
      7800   150.38766      27859.582      9440.2662      37299.848      111.02386     -313.98224      461.61385      185.43998      0.0015587845   0.00156        0.00044766816 -0.0028142793   0.0015587845   0.00044756799 -0.0028182468   18.027667     -0.6602056      6.1405143      4.4764801     -26.007669      13.931815      59.25597       53.172329      61.058448      1              192381.61      1.2476215      9155.9514      18529.685     -4197.9829      190.76053     -452.12064      24429.483     -19796.195      4181.1673      7.8          
      8000   150.8805       27817.077      9471.2032      37288.281      444.1085       279.90345      478.66868      573.75335      0.0015987214   0.0016         0.001599852   -0.0045098824   0.0015987214   0.0015985736  -0.0045200826   3.3324419      7.4763963     -6.2562681      9.1262447     -18.203332      17.143122      59.258337      53.233566      60.954625      1              192283.35      1.2482591      9079.2775      18559.586     -4220.0739      190.9819      -449.33841      24452.158     -19795.514      4207.3057      8            
      8200   149.78368      27759.326      9402.3526      37161.679      36.896847     -116.30571     -226.13242      453.12867      0.0016386567   0.00164        0.0022835435  -0.0044780019   0.0016386567   0.0022809402  -0.0044880581   12.511676      5.8191501     -12.444639      9.3852418     -27.898758      10.541815      59.260703      53.269903      60.956577      1              192428.45      1.2473179      9217.075       18422.721     -4222.8183      192.11292     -458.83513      24405.332     -19796.261      4150.2355      8.2          
      8400   150.62413      27870.55       9455.1101      37325.66       231.34112      870.10047      656.7126      -832.78971      0.0016785904   0.00168        0.0012956001  -0.0025411703   0.0016785904   0.0012947616  -0.0025444046   25.797787      14.787045      10.199561      4.2337879     -20.264981      9.4562547      59.26307       53.217395      61.075171      1              192620.47      1.2460744      9133.8993      18609.971     -4182.7536      192.41187     -483.24223      24398.087     -19797.823      4117.0217      8.4          
      8600   150.3209       27870.769      9436.0756      37306.845      489.49164      1036.8864      338.23984      93.348681      0.0017185225   0.00172       -0.00079065858 -0.0017592293   0.0017185225  -0.00079097132 -0.0017607785   13.006943     -13.73499      -4.9567642      15.754073     -17.538264      9.9543012      59.265437      53.106514      61.123049      1              192377.51      1.2476481      9179.1049      18526.262     -4210.8717      194.88962     -435.42439      24411.592     -19794.784      4181.384       8.6          
      8800   149.09111      27893.896      9358.8781      37252.774     -156.00243      259.64654     -1100.6975      373.04368      0.001758453    0.00176       -0.0016086351  -0.0011021861   0.001758453   -0.0016099303  -0.0011027939   9.0860475     -7.6470836      8.0247367      5.1410739     -23.296877      14.894289      59.267803      53.063039      61.163281      1              192354.22      1.2477992      9167.0086      18573.653     -4249.7535      201.67889     -395.19226      24393.782     -19797.281      4201.3091      8.8          
      9000   149.8517       27811.73       9406.6226      37218.353     -345.95156     -291.06718     -615.94732     -130.84018      0.0017983819   0.0018        -0.0023678995  -0.0011256669   0.0017983819  -0.0023707074  -0.0011263009   17.122576      3.0707622      5.2766364      23.02651      -24.197398      4.8979784      59.27017       53.022686      61.161843      1              192211.1       1.2487283      9185.0492      18519.01      -4189.2695      200.10349     -511.34165      24405.061     -19796.882      4096.8375      9            
      9200   148.83989      27722.317      9343.1084      37065.425     -275.1602      -535.38279     -107.36532     -182.73248      0.0018383093   0.00184       -0.0029598378  -0.001390607    0.0018383093  -0.0029642268  -0.0013915748   14.609571     -5.7507353     -4.6633184      12.502111     -20.745505      15.999134      59.272536      52.991225      61.145621      1              192053.77      1.2497513      9037.5869      18493.224     -4104.0261      203.28558     -543.14377      24432.752     -19797.362      4092.2464      9.2          
      9400   150.36565      27821.409      9438.8848      37260.294     -241.57676     -448.32622     -274.56185     -1.8422011      0.001878235    0.00188       -0.0019278821  -0.0015376923   0.001878235   -0.0019297429  -0.0015388758   18.920641     -6.5526317      6.2859184      4.2518597     -26.344164      29.662928      59.274903      53.046072      61.136614      1              192231.9       1.2485932      9158.4675      18496.065     -4102.5804      200.50862     -545.87866      24411.547     -19796.72       4068.9484      9.4          
      9600   150.08608      27854.417      9421.3354      37275.753      22.890125      199.74068     -307.95057      176.88027      0.0019181592   0.00192       -0.00035131114 -0.0022868539   0.0019181592  -0.00035137287 -0.0022894728  -3.0321069     -4.6806749     -1.9066781      5.5027104     -15.296509      9.6436045      59.277269      53.129864      61.090743      1              192398.77      1.2475102      9156.4065      18503.279     -4204.8387      190.49885     -421.40151      24427.606     -19797.133      4209.0714      9.6          
      9800   148.08024      27820.081      9295.4227      37115.504     -770.23707     -853.3104      -962.09901     -495.30178      0.0019580817   0.00196        0.0022294207  -0.0037264802   0.0019580817   0.0022269392  -0.0037334408   22.792483      7.4738155     -8.2133338      16.359577     -7.0213725      22.173703      59.279636      53.267026      61.002593      1              192624.83      1.2460462      9079.3644      18535.9       -4083.3911      203.60873     -541.94981      24422.132     -19795.583      4084.5993      9.8          
     10000   150.8513       27816.26       9469.3704      37285.63      -559.54564     -1352.9795      400.51496     -726.17243      0.0019980027   0.002          0.0029978181  -0.0052989149   0.0019980027   0.0029933336  -0.005313004    32.44297       19.877321      8.9674423     -0.44062411    -28.280094      13.317893      59.282002      53.307866      60.906312      1              192475.94      1.2470101      9144.8946      18453.498     -4173.889       196.39911     -425.39828      24417.621     -19796.865      4195.3572      10           
     10200   149.45401      27876.037      9381.6583      37257.696      376.34848      846.17708     -63.280551      346.14891      0.002037922    0.00204        0.0019565221  -0.0055097997   0.002037922    0.0019546106  -0.0055250346  -5.4302153     -1.915857      -22.758506      1.1837742     -27.306863      23.135406      59.284369      53.252522      60.893399      1              192243.03      1.2485209      9194.3245      18539.765     -4204.6486      199.50797     -464.23427      24407.405     -19796.082      4147.0887      10.2         
     10400   148.34772      27805.912      9312.2134      37118.126      367.75223     -364.63895      518.25588      949.63976      0.0020778398   0.00208        2.0506451e-05 -0.0035167015   0.0020778398   2.0506241e-05 -0.0035228996   7.1301091      11.074257      2.4537868      10.488441     -23.255049      24.305947      59.286735      53.149626      61.015438      1              192263.78      1.2483861      9226.8036      18524.407     -4241.4271      190.01758     -533.38311      24435.868     -19796.373      4106.1113      10.4         
     10600   150.0919       27852.068      9421.7006      37273.768     -244.78632     -663.70806      656.18415     -726.83505      0.002117756    0.00212       -0.0020087947  -0.0020542033   0.002117756   -0.002010815   -0.002056316    13.991918     -18.977408     -8.5986585      19.844931     -16.936319      9.7356606      59.289102      53.041771      61.104988      1              192162.91      1.2490415      9113.5247      18577.748     -4181.2106      196.67369     -464.22931      24406.079     -19796.518      4145.3318      10.6         
     10800   149.3096       27872.195      9372.5934      37244.789     -436.01096     -464.82093      103.69013     -946.90206      0.0021576706   0.00216       -0.001174994   -0.0014310093   0.0021576706  -0.0011756848  -0.0014320342   9.0167608     -7.9883928      14.576249      13.89724      -23.300902      8.5334724      59.291469      53.086087      61.143147      1              192451.24      1.2471702      9149.8337      18524.829     -4110.3071      196.62482     -458.03785      24363.678     -19794.426      4111.2147      10.8         
     11000   149.509        27731.785      9385.1103      37116.895     -399.32529     -619.45147     -375.71778     -202.80661      0.0021975835   0.0022        -0.00041778281 -0.0021509124   0.0021975835  -0.0004178701  -0.0021532289  -3.7522559      11.438304      9.9511903      17.005617     -14.709942      5.6290297      59.293835      53.126331      61.099066      1              192465.97      1.2470747      9130.864       18549.372     -4252.9332      195.91624     -495.1635       24399.761     -19796.032      4108.5659      11           
     11200   150.97586      27788.918      9477.1896      37266.107      447.47568      227.74434      381.319        733.36369      0.0022374949   0.00224       -0.0016023857  -0.0041102324   0.0022374949  -0.0016036709  -0.0041187026   2.335197      -0.25741393    -0.51931673     21.54373      -9.0183854      5.6616928      59.296202      53.063372      60.979096      1              191868.06      1.2509609      9097.863       18556.943     -4247.0056      194.77734     -468.74525      24452.512     -19797.427      4186.3398      11.2         
     11400   150.47353      27825.426      9445.6564      37271.083     -50.961508     -420.27993      422.48805     -155.09264      0.0022774047   0.00228       -0.0011158332  -0.0036230252   0.0022774047  -0.0011164562  -0.0036296043   6.8812721     -11.328974     -13.686491      10.231996     -19.371004      19.485983      59.298568      53.089231      61.008928      1              192063.14      1.2496903      9080.9501      18648.033     -4194.1445      193.95727     -525.50324      24418.672     -19796.538      4096.6304      11.4         
     11600   148.91634      27813.667      9347.9076      37161.575     -536.96238     -1202.0539     -431.25342      22.420181      0.002317313    0.00232        0.00086484519 -0.0014211702   0.002317313    0.00086447143 -0.001422181    21.026315     -3.238579      -16.397889      14.379244     -18.883519      15.529993      59.300935      53.194501      61.143749      1              192876.96      1.2444174      9167.3218      18570.712     -4222.6126      193.54605     -529.34679      24430.623     -19796.576      4104.7003      11.6         
     11800   150.07479      27812.303      9420.6268      37232.929     -740.53649     -1311.6285     -332.2078      -577.77316      0.0023572196   0.00236        0.00016743402 -0.00090241752  0.0023572196   0.00016742001 -0.00090282494  28.157017      22.645188      30.175486      9.2102588     -16.546847      20.568213      59.303301      53.157435      61.175513      1              192850.38      1.2445889      9067.1281      18463.948     -4090.4145      198.69103     -449.92902      24419.796     -19796.917      4172.9505      11.8         
     12000   150.91175      27849.406      9473.1648      37322.571      371.1096       134.95173      672.8189       305.55817      0.0023971246   0.0024        -0.0017183608  -0.003350917    0.0023971246  -0.0017198389  -0.0033565439   30.143404      0.077577267    8.0723552      10.925571     -18.656188      13.933292      59.305668      53.057208      61.025589      1              192022.7       1.2499535      9230.0584      18594.093     -4324.7297      201.78697     -470.8734       24414.842     -19795.771      4148.1975      12           
     12200   150.0666       27798.177      9420.1125      37218.289      450.93917      783.98167      350.42232      218.41352      0.002437028    0.00244       -0.00079756971 -0.0050779632   0.002437028   -0.00079788793 -0.0050908999  -5.1070463     -24.023372     -9.2192251      8.3378722     -20.114748      13.942893      59.308034      53.106146      60.919841      1              191874.42      1.2509194      9191.1847      18505.528     -4219.5841      198.95243     -454.82477      24374.201     -19797.281      4122.0955      12.2         
     12400   151.03215      27711.001      9480.7226      37191.724     -33.405814      678.28723     -322.03083     -456.47384      0.0024769299   0.00248       -0.00077637102 -0.0044898361   0.0024769299  -0.00077667256 -0.0044999457  -5.5503911      5.5570078     -12.195689      3.8313305     -17.570038      28.227517      59.310401      53.107273      60.955852      1              191999.58      1.250104       9129.4472      18445.357     -4183.1499      187.97575     -505.84459      24432.782     -19795.566      4131.3712      12.4         
     12600   151.308        27862.259      9498.0385      37360.297     -56.034126     -147.83202      353.38055     -373.6509       0.0025168301   0.00252       -0.00045666146 -0.0027746399   0.0025168301  -0.00045676576 -0.0027784963   32.463429      1.1615104     -8.482423       6.6846364     -20.106974      15.116482      59.312767      53.124265      61.060875      1              192399.59      1.2475049      9140.0008      18503.035     -4186.4702      198.564       -450.50717      24454.531     -19796.895      4207.129       12.6         
     12800   150.33403      27827.151      9436.8999      37264.051      333.75557     -199.44365      1053.9848      146.72555      0.0025567288   0.00256        0.00016284068 -0.00091010583  0.0025567288   0.00016282742 -0.00091052022  21.416887      9.4627009      14.042348      16.31752      -30.99932       19.65105       59.315134      53.157191      61.175042      1              192886.49      1.2443559      9143.3045      18506.242     -4200.5658      200.04402     -472.49969      24445.76      -19795.134      4178.1264      12.8         
     13000   148.74706      27865.778      9337.2809      37203.059      39.441824     -773.86424      259.33645      632.85326      0.0025966258   0.0026        -0.00060639925 -0.0017130758   0.0025966258  -0.00060658318 -0.0017145448   10.43762       1.1098193     -1.4809546      14.58243      -14.927687      18.226037      59.317501      53.116307      61.125876      1              192590.92      1.2462656      9115.7709      18579.416     -4187.1169      193.08413     -454.51483      24417.465     -19798.326      4164.624       13           
     13200   150.74427      27908.203      9462.6515      37370.855     -777.24101     -1118.4802     -240.07717     -973.16568      0.0026365213   0.00264       -0.0018776807  -0.0018555425   0.0026365213  -0.0018794458  -0.0018572662   14.348074      1.9512611      7.2380032      10.926427     -22.241518      11.482739      59.319867      53.04874       61.117152      1              192326.16      1.2479813      9233.9099      18598.092     -4188.6874      197.63654     -528.20141      24391.483     -19796.029      4067.2527      13.2         
     13400   150.45178      27791.017      9444.2916      37235.308     -202.93316     -715.50486      118.11252     -11.407135      0.0026764152   0.00268       -0.0034562924  -0.0023065324   0.0026764152  -0.0034622792  -0.0023091965   23.251134      1.0472439     -17.462581      19.996632     -20.181439      21.650233      59.322234      52.964839      61.089538      1              191942.87      1.2504733      9175.8774      18506.499     -4151.2054      197.03132     -544.33451      24403.301     -19796.152      4062.8147      13.4         
     13600   149.25851      27845.118      9369.3861      37214.504     -311.34523      671.29806     -411.54538     -1193.7884      0.0027163075   0.00272       -0.0027322446  -0.00043965619  0.0027163075  -0.002735984   -0.00043975287  17.009915     -21.039775      6.529362       8.7444738     -16.854877      12.432184      59.3246        53.003321      61.203848      1              192449.43      1.2471819      9212.2514      18543.847     -4253.2561      191.84798     -468.77304      24415.816     -19796.616      4150.4274      13.6         
     13800   150.43315      27872.625      9443.1221      37315.747     -124.13763      165.14437     -932.48908      394.93181      0.0027561982   0.00276       -0.0020980543  -0.0010064679   0.0027561982  -0.0021002583  -0.0010069747   36.13709       6.0725313      14.958779      8.5198106     -21.065815      19.695046      59.326967      53.037027      61.169142      1              192470.29      1.2470467      9122.6179      18542.718     -4178.6715      197.30753     -448.44201      24432.812     -19795.718      4188.6524      13.8         
     14000   149.95821      27860.599      9413.3086      37273.908      605.76273      1347.0819      240.99655      229.20973      0.0027960873   0.0028        -0.0017509572  -0.0030545867   0.0027960873  -0.0017524919  -0.0030592614   23.081507      5.7152328      8.2214591      7.0647711     -17.60055       11.038173      59.329333      53.055475      61.043734      1              192150.17      1.2491243      9223.007       18515.793     -4186.1256      198.04808     -558.14206      24463.799     -19795.78       4109.8769      14           
     14200   148.3855       27851.485      9314.585       37166.07      -163.87774     -226.04011     -584.35832      318.76519      0.0028359748   0.00284       -0.00091978286 -0.0041600899   0.0028359748  -0.00092020612 -0.0041687672   7.1438476     -10.287089     -24.524077      17.128521     -16.233004      18.083598      59.3317        53.099651      60.976043      1              192104.57      1.2494208      9153.2914      18602.013     -4127.2424      186.72253     -583.94794      24415.259     -19794.61       4036.7005      14.2         
     14400   151.13999      27821.342      9487.4926      37308.835     -601.13625     -1043.3612     -70.652405     -689.3952       0.0028758607   0.00288        1.7256144e-05 -0.0036031167   0.0028758607   1.7255995e-05 -0.0036096235   22.10628       5.4203201      8.3433387      9.746339      -14.524521      21.500718      59.334066      53.149453      61.010147      1              192399.96      1.2475025      9215.7724      18423.841     -4112.1436      208.41524     -525.19411      24408.166     -19797.515      4085.4574      14.4         
     14600   150.24107      27830.935      9431.0643      37262          226.36108     -651.76977      1150.7764      180.07661      0.0029157451   0.00292       -0.00015618388 -0.003871264    0.0029157451  -0.00015619608 -0.0038787767   24.047425      7.5050982     -0.68732886     2.5018855     -20.105196      7.6442673      59.336433      53.140235      60.993728      1              192322.49      1.248005       9142.2747      18508.659     -4237.246       205.19994     -402.35467      24409.733     -19795.331      4212.0473      14.6         
     14800   149.70508      27755.219      9397.4186      37152.638     -402.28002     -101.24083     -151.61649     -953.98272      0.0029556278   0.00296        6.1172677e-05 -0.0036614806   0.0029556278   6.1170806e-05 -0.0036682003   11.70397       0.21403847    -3.3775825      24.672791     -23.599956      5.7033038      59.338799      53.151787      61.006573      1              192412.49      1.2474213      9230.1617      18454.917     -4200.0443      187.6471      -534.72212      24414.589     -19797.329      4082.5375      14.8         
     15000   149.34056      27732.939      9374.5369      37107.476     -440.40098     -200.31214     -190.25104     -930.63975      0.002995509    0.003          1.2233071e-05 -0.0029740208   0.002995509    1.2232996e-05 -0.002978452    8.9220722     -5.4618559     -3.7550106      13.174406     -20.904972      20.633688      59.341166      53.149186      61.048667      1              192543.51      1.2465725      9159.8054      18461.032     -4181.2877      197.07822     -536.38711      24429.467     -19796.768      4096.3119      15           
     15200   151.78216      27777.844      9527.8031      37305.647     -118.92096     -74.623283     -563.73517      281.59557      0.0030353885   0.00304       -9.2032179e-05 -0.0041756998   0.0030353885  -9.2036414e-05 -0.0041844423   18.454743      9.0402158      13.659116      25.430665     -8.7830541      16.847         59.343533      53.143645      60.975087      1              192299.06      1.2481571      9124.9692      18582.862     -4222.7561      192.84671     -496.68711      24394.455     -19797.846      4099.9222      15.2         
     15400   150.25839      27752.77       9432.1515      37184.922     -185.09012     -567.11438     -301.17851      313.02254      0.0030752665   0.00308       -0.00023554869 -0.0048307479   0.0030752665  -0.00023557644 -0.0048424537   7.6282812     -13.275107     -15.399408      12.024157     -24.869324      10.982674      59.345899      53.136017      60.934978      1              192152.65      1.2491082      9152.9005      18485.524     -4151.3203      195.28244     -559.83027      24426.895     -19796.682      4070.3834      15.4         
     15600   149.28201      27796.625      9370.8618      37167.486     -700.50951     -514.99306     -931.9982      -654.53726      0.0031151429   0.00312       -6.9315735e-05 -0.0027916925   0.0031151429  -6.9318137e-05 -0.0027955966   9.6262903      8.1731132     -8.2317124      7.2872387     -33.221412      9.3146595      59.348266      53.144852      61.059831      1              192586.05      1.2462971      9155.7593      18518.119     -4193.7495      196.93067     -497.77272      24413.141     -19795.803      4119.5651      15.6         
     15800   151.50311      27827.564      9510.2864      37337.85       54.711791      524.84874     -220.16363     -140.54973      0.0031550177   0.00316       -0.0014259521  -0.0022856944   0.0031550177  -0.0014269697  -0.0022883106   34.718037      9.2399624      17.217647      24.245385     -18.006461      21.428788      59.350632      53.072749      61.090814      1              192430.03      1.2473076      9204.9012      18538.307     -4197.369       190.45157     -523.69173      24410.992     -19796.028      4091.2724      15.8         
     16000   147.9756       27901.821      9288.8541      37190.675      715.54894      411.26203      527.37893      1208.0059      0.0031948909   0.0032        -0.0022556933  -0.0022575831   0.0031948909  -0.0022582412  -0.0022601353   10.949616     -25.264899     -11.089926      14.825623     -16.325856      13.227693      59.352999      53.028649      61.092535      1              192283.22      1.24826        9199.1028      18614.235     -4329.7787      194.24146     -405.90286      24427.223     -19797.3        4224.02        16           
     16200   150.56159      27782.179      9451.1847      37233.364     -737.90576     -1416.2281     -1080.6511      283.16195      0.0032347625   0.00324       -0.00090128333 -0.00042596338  0.0032347625  -0.00090168973 -0.00042605413  24.912584      8.7226605      9.6251313     -3.5831783     -8.1464321      14.087005      59.355365      53.100634      61.204686      1              192905.39      1.244234       9132.7837      18504.296     -4220.1037      196.51949     -463.65633      24426.233     -19793.893      4168.6838      16.2         
     16400   151.00031      27887.624      9478.7244      37366.349      344.56711      315.75067     -693.44514      1411.3958      0.0032746325   0.00328       -0.0026635894   0.00042655357  0.0032746325  -0.0026671431   0.00042646262  32.564794      22.257853      15.951045      14.292336     -21.625813      14.114177      59.357732      53.00697       61.256887      1              192737.05      1.2453207      9176.8584      18544.324     -4266.3835      201.80337     -418.03417      24442.301     -19793.244      4231.0225      16.4         
     16600   150.64401      27766.772      9456.358       37223.13       870.73951      1204.5816      543.76001      863.87688      0.003314501    0.00332       -0.0043639075   0.00044726865  0.003314501   -0.0043734571   0.00044716866  13.087091     -26.698023     -19.294893      10.303844     -17.459793      12.125843      59.360098      52.916601      61.258155      1              192420.11      1.2473719      9219.5589      18497.187     -4282.6377      197.41083     -474.83621      24405.471     -19795.381      4135.2532      16.6         
     16800   150.83989      27784.549      9468.6542      37253.203      152.71637      405.96414      361.08        -308.89503      0.0033543678   0.00336       -0.0031949897   0.00083632547  0.0033543678  -0.0032001046   0.00083597594  10.106254     -5.9965355      8.1510705      11.944701     -16.008775      9.6715064      59.362465      52.978727      61.281977      1              192728.62      1.2453752      9147.5381      18530.05      -4217.2234      207.08049     -499.72046      24414.658     -19797.833      4117.1044      16.8         
     17000   151.08888      27988.278      9484.2837      37472.562     -528.69427     -568.89828     -539.1624      -478.02214      0.0033942331   0.0034        -0.0026231857  -0.00023951808  0.0033942331  -0.0026266323  -0.00023954677  33.775084      10.182359      4.9265792      3.5882526     -20.834328      23.788003      59.364831      53.009118      61.216103      1              192639.57      1.2459509      9105.4618      18636.651     -4076.9405      195.36689     -459.32969      24383.499     -19796.43       4127.7388      17           
     17200   149.79778      27911.281      9403.2378      37314.519      317.5748       275.98582      684.90084     -8.1622705      0.0034340967   0.00344       -0.0020993146  -0.0021006077   0.0034340967  -0.0021015212  -0.0021028171   24.456851     -7.5836148      14.575078     -1.9971521     -17.284889      14.720387      59.367198      53.03696       61.102147      1              192389.62      1.2475696      9184.9746      18557.27      -4161.6904      201.92964     -554.31036      24479.166     -19796.058      4128.7975      17.2         
     17400   149.80787      27781.638      9403.8712      37185.509      94.671987     -407.94561      769.26969     -77.308114      0.0034739588   0.00348       -0.0022029544  -0.0044262411   0.0034739588  -0.0022053845  -0.0044360659   14.296899     -2.4109413     -24.096915      15.870161     -23.613082      7.4789996      59.369565      53.031452      60.959746      1              191928.97      1.2505639      9125.3646      18533.966     -4144.0241      198.05985     -532.32394      24397.154     -19796.558      4068.2713      17.4         
     17600   149.35726      27851.963      9375.5855      37227.548      347.25963     -114.25084      373.49603      782.53369      0.0035138193   0.00352       -0.00024566135 -0.0041974921   0.0035138193  -0.00024569153 -0.0042063263   23.941203     -4.6272054     -0.15681576     3.9712348     -30.591053      21.845781      59.371931      53.135479      60.973753      1              192357.31      1.2477791      9212.5333      18463.441     -4240.1412      200.6794      -399.25474      24408.605     -19793.9        4215.4501      17.6         
     17800   150.6778       27867.832      9458.4793      37326.311     -248.37108      131.28143     -478.85657     -397.53809      0.0035536782   0.00356        0.0009662386  -0.0043569805   0.0035536782   0.00096577209 -0.0043664998   38.751608      15.577936      13.886248      15.468622     -18.315277      14.734194      59.374298      53.19989       60.963987      1              192567.32      1.2464183      9188.4508      18472.821     -4205.9897      197.73075     -442.26787      24452.139     -19795.052      4214.819       17.8         
     18000   149.02097      27840.552      9354.4753      37195.027     -171.47843     -537.30596     -820.85248      843.72316      0.0035935355   0.0036        -0.00012443277 -0.0045032668   0.0035935355  -0.00012444052 -0.0045134371   22.173806      6.5168258     -14.532399      4.6069899     -10.212618      5.6133904      59.376664      53.141923      60.95503       1              192336.9       1.2479116      9201.3812      18603.191     -4215.8251      194.73281     -570.10574      24423.008     -19795.831      4057.0719      18           
     18200   150.64214      27777.237      9456.2409      37233.477      178.80441      39.545408     -195.49633      692.36415      0.0036333912   0.00364       -0.001024578   -0.0035686492   0.0036333912  -0.0010251033  -0.003575032    19.630923      2.6288808      3.6526848      15.083765     -8.5726791      12.359695      59.379031      53.094081      61.012257      1              192351.82      1.2478147      9098.0317      18553.703     -4230.8707      200.34353     -481.02783      24434.72      -19797.663      4156.0295      18.2         
     18400   150.32995      27837.48       9436.6437      37274.123     -31.330104      977.09875     -169.74833     -901.34072      0.0036732454   0.00368       -0.0019649586  -0.0032048979   0.0036732454  -0.0019668917  -0.0032100446   2.0645697     -6.1547481     -2.7570327      4.4415324     -17.664282      22.349157      59.381397      53.044101      61.03453       1              192248.57      1.2484849      9232.2037      18515.85      -4194.5055      195.40157     -554.05681      24439.537     -19796.951      4088.5295      18.4         
     18600   150.67916      27814.013      9458.5648      37272.578      513.03651      228.39582      593.47465      717.23906      0.0037130979   0.00372       -0.0027766747  -0.0021671543   0.0037130979  -0.0027805368  -0.002169506    35.426473     -3.4036408     -8.2610751      18.525343     -13.227022      13.224465      59.383764      53.00096       61.098072      1              192299.86      1.2481519      9132.2011      18560.926     -4211.3672      188.4889      -474.63324      24414.894     -19796.497      4143.7641      18.6         
     18800   148.25647      27852.236      9306.4856      37158.722      535.60446     -438.75449      1455.2541      590.31376      0.0037529489   0.00376       -0.0045159     -0.00027952783  0.0037529489  -0.0045261275  -0.00027956691  10.675049      3.3523784      3.2820761      10.292356     -23.434582      5.5058577      59.38613       52.908523      61.213653      1              192335.28      1.2479221      9199.5988      18480.415     -4183.8695      191.07004     -501.51247      24463.21      -19796.676      4165.0215      18.8         
     19000   149.05382      27898.976      9356.5376      37255.514     -628.7847      -1199.1853     -479.18122     -207.98756      0.0037927982   0.0038        -0.0039644972   0.00039715959  0.0037927982  -0.0039723767   0.00039708075  25.530606     -8.7806857      10.402665      7.6438214     -24.172081      16.802183      59.388497      52.937829      61.255087      1              192579.75      1.2463379      9186.6738      18529.887     -4165.1376      194.6649      -464.25518      24411.954     -19794.811      4152.8883      19           
     19200   150.17487      27869.401      9426.909       37296.31       291.2025       403.89515      333.87995      135.83241      0.003832646    0.00384       -0.0033276304  -0.00046993079  0.003832646   -0.0033331793  -0.00047004124  22.359425     -7.782615       3.7948684      2.4002203     -19.919355      10.451625      59.390864      52.971677      61.201994      1              192543.53      1.2465723      9180.2677      18438.341     -4169.7729      191.78867     -426.37813      24450.895     -19795.741      4228.7761      19.2         
     19400   148.99665      27833.706      9352.9486      37186.655     -413.14156     -269.56443     -125.29585     -844.5644       0.0038724922   0.00388       -0.0016892464  -0.0018872544   0.0038724922  -0.0016906748  -0.0018890375   19.791428      7.2359703     -1.7215785      12.089915     -13.591937      20.692384      59.39323       53.058755      61.11521       1              192594.25      1.2462441      9219.1099      18522.176     -4237.3012      196.58117     -496.12517      24425.971     -19796.706      4133.1403      19.4         
     19600   150.93549      27855.488      9474.6553      37330.143     -207.814       -39.987479     -282.67576     -300.77877      0.0039123368   0.00392       -0.0026498963  -0.0033617596   0.0039123368  -0.0026534135  -0.003367423    30.074247      1.5503271      1.3762695      12.867425     -25.13604       19.880189      59.395597      53.007698      61.024925      1              192132.33      1.2492403      9097.4916      18455.213     -4133.4515      197.05226     -393.82288      24424.995     -19791.988      4239.1832      19.6         
     19800   149.70838      27914.917      9397.6261      37312.543     -169.21337     -855.6944      -485.8303       833.88457      0.0039521798   0.00396       -0.0016138141  -0.0028946516   0.0039521798  -0.0016151177  -0.0028988492   39.001634     -3.7938871     -13.909642      4.7645977     -14.263215      10.704686      59.397963      53.062764      61.053527      1              192429.73      1.2473095      9202.9103      18540.94      -4106.7474      198.25319     -575.27934      24450.495     -19795.655      4079.5601      19.8         
     20000   150.05825      27767.153      9419.5885      37186.741      203.1004      -12.592468      7.520148       614.37351      0.0039920213   0.004         -0.0024088943  -0.0014737947   0.0039920213  -0.0024118003  -0.0014748818   35.051369      22.315491      7.2181226      14.186142     -8.9438363      22.054772      59.40033       53.020507      61.140527      1              192558.15      1.2464777      9070.7044      18566.896     -4229.7329      191.40835     -461.33901      24427.069     -19797.853      4167.8771      20           
     20200   149.3924       27892.36       9377.791       37270.151     -16.538691     -988.04292      276.34784      662.079        0.0040318611   0.00404       -0.0047319065  -0.0010852408   0.0040318611  -0.0047431375  -0.0010858301   32.543734     -11.891732     -0.027645984    3.5205365     -19.814693      4.5987552      59.402696      52.897042      61.164318      1              192192.17      1.2488513      9295.5465      18612.837     -4257.8945      199.37484     -553.74785      24392.981     -19796.737      4042.4966      20.2         
     20400   150.49503      27961.206      9447.0064      37408.213      114.472       -328.15723      305.50617      366.06705      0.0040716994   0.00408       -0.0058340329  -0.001395876    0.0040716994  -0.0058511173  -0.0013968511   34.432364     -8.435459       3.6224955      4.5283912     -13.51935       16.940255      59.405063      52.838466      61.145298      1              191927.29      1.2505749      9175.8821      18617.811     -4225.3901      195.09827     -426.67967      24419.963     -19795.479      4197.8046      20.4         
     20600   150.32852      27829.665      9436.5541      37266.219     -193.03884     -1025.9268     -276.43786      723.24814      0.004111536    0.00412       -0.0033259119  -0.0018126271   0.004111536   -0.003331455   -0.0018142719   6.9946357     -10.257968     -4.7367521      13.640073     -32.000256      24.487414      59.407429      52.971769      61.11978       1              192338.85      1.2478989      9211.1647      18586.069     -4285.567       195.60661     -497.26133      24417.396     -19797.743      4122.3915      20.6         
     20800   149.18677      27848.078      9364.8828      37212.961     -283.64885     -1120.4056     -256.75696      526.21597      0.0041513711   0.00416       -0.0015846589  -0.0016580309   0.0041513711  -0.0015859158  -0.0016594069   30.146832      7.1433717      4.0064233      9.5136283     -18.724405      14.39304       59.409796      53.064314      61.129246      1              192712.4       1.24548        9095.7368      18561.951     -4220.521       199.99519     -436.3998       24440.185     -19792.869      4210.9161      20.8         
     21000   151.04243      27907.679      9481.3678      37389.047      189.41329      232.44025     -805.10761      1140.9072      0.0041912046   0.0042        -0.00021465066 -0.002843444    0.0041912046  -0.0002146737  -0.0028474942   35.980322      6.4833838      9.2381581      5.9863823     -17.482132      14.771863      59.412162      53.137128      61.056662      1              192755.37      1.2452023      9253.4457      18579.284     -4341.7415      207.86589     -418.92922      24425.034     -19797.28       4208.825       21           
     21200   149.39886      27895.26       9378.1966      37273.457     -13.508527      3.1708811     -340.14353      296.44707      0.0042310365   0.00424        0.00034503497 -0.0032122637   0.0042310365   0.00034497546 -0.0032174341   22.013231      20.172288     -11.960692      21.090696     -21.467364      15.22797       59.414529      53.166874      61.034079      1              192799.62      1.2449165      9118.7414      18618.051     -4186.8457      194.87271     -484.53451      24432.99      -19798.015      4150.4403      21.2         
     21400   149.7262       27790.826      9398.7449      37189.571     -1125.7325     -1665.0161     -41.044404     -1671.1371      0.0042708669   0.00428       -0.0025591349  -0.0030247298   0.0042708669  -0.0025624151  -0.0030293135   21.869354     -11.245359     -10.331549      13.457442     -10.952019      16.041037      59.416896      53.012522      61.045562      1              192283.72      1.2482567      9154.2706      18477.937     -4208.0867      195.5078      -422.67498      24390.565     -19796.693      4171.1971      21.4         
     21600   150.27488      27816.016      9433.1868      37249.203     -12.966078     -27.508903     -348.53406      337.14473      0.0043106956   0.00432       -0.0028908913  -0.0015134834   0.0043106956  -0.002895078   -0.0015146299   33.525632     -10.152903     -1.8596068      9.1477057     -17.546283      12.767128      59.419262      52.994889      61.138097      1              192518.81      1.2467324      9237.3963      18583.527     -4225.4117      183.38424     -534.18565      24369.807     -19798.501      4037.1208      21.6         
     21800   150.90349      27832.516      9472.6462      37305.162     -138.49618     -445.30049     -378.69868      408.51063      0.0043505227   0.00436       -0.0031427613  -0.0016207159   0.0043505227  -0.0031477102  -0.0016220307   27.495856      3.1732894      17.298367      17.900142     -17.137265      23.172044      59.421629      52.981503      61.131531      1              192457.17      1.2471317      9111.7764      18531.446     -4136.1934      205.5276      -499.80214      24416.024     -19796.263      4119.9592      21.8         
     22000   149.25536      27790.822      9369.1885      37160.01      -422.58952     -23.86691      -801.50129     -442.40034      0.0043903483   0.0044        -0.0042672127  -0.0034781027   0.0043903483  -0.0042763433  -0.0034841654   1.7841924      2.455012      -0.63204576     17.316262     -13.779265      8.2779589      59.423995      52.92174       61.017802      1              191890.08      1.2508174      9214.8787      18382.35      -4047.9946      195.73312     -551.50976      24394.185     -19796.82       4045.8546      22           
     22200   151.07453      27892          9483.3834      37375.384      544.95088      478.38563      547.65677      608.81023      0.0044301723   0.00444       -0.0033957686  -0.0034953245   0.0044301723  -0.0034015473  -0.0035014474   1.8456392     -18.901284     -20.094638      7.7118338     -23.222241      13.555228      59.426362      52.968056      61.016747      1              192062.34      1.2496955      9154.9884      18619.489     -4208.322       186.94089     -480.96131      24416.447     -19796.582      4138.9038      22.2         
     22400   149.8829       27851.242      9408.5811      37259.823     -221.59339     -395.95328     -180.81498     -88.0119        0.0044699947   0.00448       -0.0012993802  -0.0024451511   0.0044699947  -0.0013002251  -0.0024481454   27.189729      11.350928      10.679844     -1.8720957     -27.615502      11.676641      59.428728      53.079476      61.08105       1              192676.86      1.2457097      9224.7285      18540.596     -4200.9527      185.89953     -490.35593      24389.928     -19798.601      4100.9709      22.4         
     22600   148.81207      27874.023      9341.3618      37215.385     -564.2712      -543.81516     -640.22542     -508.77301      0.0045098155   0.00452       -0.00048346033 -0.0030413487   0.0045098155  -0.00048357724 -0.003045983    22.897456      6.6157452      13.721341      15.832866     -23.044028      15.400245      59.431095      53.122841      61.044544      1              192726.7       1.2453876      9180.5773      18525.074     -4152.318       196.46996     -487.92178      24408.419     -19796.277      4124.22        22.6         
     22800   151.09413      27895.444      9484.6138      37380.057     -267.86784     -68.049071     -344.27002     -391.28442      0.0045496347   0.00456       -0.00072309419 -0.0051293198   0.0045496347  -0.00072335575 -0.0051425199   26.59115      -3.3460561     -13.550271      0.11502004    -22.253356      19.110236      59.433461      53.110105      60.916696      1              192284.61      1.2482509      9164.6251      18525.403     -4113.0359      198.42829     -481.08305      24398.136     -19797.03       4120.0232      22.8         
     23000   150.97116      27736.793      9476.8943      37213.687      585.74207      505.51438      776.33084      475.38101      0.0045894523   0.0046        -0.0013742251  -0.0038017163   0.0045894523  -0.0013751702  -0.0038089612   23.239666      6.7921542     -14.706006      7.6607104     -19.692232      11.34697       59.435828      53.075498      60.997986      1              192423.4       1.2473506      9118.317       18499.097     -4237.2588      193.08826     -454.45643      24416.131     -19798.125      4163.5496      23           
     23200   148.98984      27840.877      9352.5212      37193.399      118.42643     -221.15971      289.78485      286.65415      0.0046292684   0.00464       -0.0025371744  -0.0024366738   0.0046292684  -0.0025403985  -0.0024396473   17.194693     -1.9862184      13.583764      8.1749426     -11.880351      13.64017       59.438194      53.013689      61.081569      1              192470.34      1.2470464      9235.6137      18556.571     -4255.9863      192.36366     -479.68766      24389.746     -19797.743      4112.3154      23.2         
     23400   150.81821      27863.171      9467.2935      37330.465     -215.05539     -149.91471     -216.93386     -278.31761      0.0046690828   0.00468       -0.0039076882  -0.0020090836   0.0046690828  -0.0039153432  -0.0020111045   21.71094       1.6315067     -1.9721562      22.231748     -29.427427      14.304285      59.440561      52.940848      61.107751      1              192295.93      1.2481774      9156.7976      18542.559     -4141.1302      199.40975     -522.33622      24426.034     -19798.163      4105.5352      23.4         
     23600   150.72708      27766.161      9461.573       37227.734     -53.895372     -518.97929      622.44104     -265.14786      0.0047088957   0.00472       -0.0040001338  -0.0016131024   0.0047088957  -0.0040081557  -0.0016144048   7.3125443     -13.693574      5.04064        5.9131687     -19.841378      17.058586      59.442928      52.935935      61.131997      1              192362.03      1.2477485      9095.223       18533.927     -4207.1354      191.52078     -446.39606      24396.555     -19797.534      4152.6252      23.6         
     23800   149.92007      27838.971      9410.9147      37249.886      134.39803     -422.64059      544.40168      281.433        0.004748707    0.00476       -0.0034134231  -0.0018007084   0.004748707   -0.0034192621  -0.0018023316   39.645608      8.1129315      4.431694       4.5677739     -27.276678      16.123508      59.445294      52.967118      61.12051       1              192446.84      1.2471986      9165.995       18545.364     -4152.8713      195.47568     -529.33028      24409.961     -19795.623      4085.0075      23.8         
     24000   151.25198      27912.343      9494.522       37406.865     -650.69954     -1255.7192     -799.35828      102.97884      0.0047885167   0.0048        -0.0024560302  -0.0022148761   0.0047885167  -0.0024590512  -0.0022173326   21.580869     -15.974127     -6.5149818     -1.2033386     -27.602793      11.196364      59.447661      53.018002      61.09515       1              192559.46      1.2464692      9226.2501      18524.981     -4145.7236      198.71305     -525.22884      24430.864     -19797.512      4108.1226      24           
     24200   149.80231      27879.259      9403.5222      37282.781     -899.62632     -955.15742     -1341.255      -402.46659      0.0048283249   0.00484       -0.00065178931 -0.0026225686   0.0048283249  -0.00065200182 -0.0026260136   31.381688      4.1552093      3.1554059      0.95732321    -16.421996      6.0833551      59.450027      53.113894      61.070187      1              192836.59      1.2446779      9122.2526      18576.18      -4118.8516      189.93582     -496.79906      24404.284     -19797.742      4109.7426      24.2         
     24400   150.2383       27801.455      9430.8907      37232.346     -233.0194       162.54113     -510.64967     -350.94967      0.0048681314   0.00488        8.7900445e-05 -0.0048177982   0.0048681314   8.7896582e-05 -0.0048294412   45.683001      15.126316      10.617853      11.256944     -19.520429      16.03089       59.452394      53.153208      60.935771      1              192562.24      1.2464512      9078.5909      18542.959     -4196.7748      193.0756      -470.32227      24450.031     -19796.105      4183.6041      24.4         
     24600   149.87066      27904.18       9407.8128      37311.993     -291.04832     -286.71097     -631.27513      44.841145      0.0049079364   0.00492        0.00017252018 -0.0050702083   0.0049079364   0.0001725053  -0.0050831055   22.497806      3.0751832     -17.202316      2.7904015     -20.060654      11.30163       59.45476       53.157705      60.920316      1              192537.36      1.2466123      9225.7328      18577.791     -4239.7732      198.87791     -491.59177      24429.725     -19796.582      4141.551       24.6         
     24800   150.29057      27907.36       9434.1715      37341.532      9.5504673     -54.219109      75.020254      7.8502562      0.0049477397   0.00496       -0.0011034509  -0.0043912006   0.0049477397  -0.0011040601  -0.0044008703   20.952392     -2.877878      -7.5503035      12.762263     -19.156364      15.624641      59.457127      53.089889      60.961892      1              192430.62      1.2473038      9169.8181      18500.422     -4142.7214      206.38841     -422.00899      24391.318     -19795.855      4173.4534      24.8         
     25000   150.06447      27754.6        9419.979       37174.579     -342.1668      -815.96223      799.07699     -1009.6152      0.0049875415   0.005         -0.0031072489  -0.0021868308   0.0049875415  -0.0031120865  -0.0021892254   14.371243      11.645451      7.2918745      14.545189     -18.053308      10.222333      59.459493      52.98339       61.096867      1              192477.46      1.2470002      9207.6518      18578.355     -4285.0483      189.15394     -542.46934      24401.998     -19795.041      4064.4882      25           
     25200   150.31327      27868.462      9435.5966      37304.059     -1054.5269     -1270.2736     -807.24008     -1086.0671      0.0050273417   0.00504       -0.0039436804  -0.0010280447   0.0050273417  -0.0039514773  -0.0010285735   31.266952     -24.936235     -5.3728261      12.974292     -17.497291      13.198472      59.46186       52.938935      61.16782       1              192546.97      1.2465501      9295.2626      18506.304     -4234.3025      200.48827     -558.59859      24452.482     -19793.174      4100.7096      25.2         
     25400   150.13229      27908.992      9424.236       37333.228      189.93236      913.75482     -144.07711     -199.88064      0.0050671403   0.00508       -0.0039846781  -0.0010328798   0.0050671403  -0.003992638   -0.0010334136   21.277116      4.557502       11.635067      3.7098983     -19.062157      4.7763338      59.464226      52.936756      61.167524      1              192545.78      1.2465578      9260.7866      18558.938     -4232.7708      189.14159     -492.91259      24422.887     -19797.078      4132.8969      25.4         
     25600   149.36886      27848.096      9376.3135      37224.409      19.994494     -590.77576      183.94437      466.81487      0.0051069374   0.00512       -0.0031624189  -0.0032372165   0.0051069374  -0.0031674299  -0.0032424676   27.174567     -4.0588106      9.7625162      10.91259      -15.458301      14.500907      59.466593      52.980458      61.032551      1              192287.16      1.2482343      9201.7819      18520.155     -4244.9499      192.97248     -468.45759      24443.992     -19797.398      4178.1362      25.6         
     25800   150.04329      27753.13       9418.649       37171.779      625.44617      224.31462      727.61119      924.4127       0.0051467328   0.00516       -0.0021649398  -0.0045323122   0.0051467328  -0.0021672866  -0.0045426143   29.511686      1.2053154     -19.246546      12.422107     -24.097888      14.732033      59.46896       53.033473      60.953251      1              192237.13      1.2485592      9171.2379      18500.119     -4239.6989      192.98207     -508.14076      24433.721     -19797.09       4128.4903      25.8         
     26000   150.39608      27860.916      9440.795       37301.711     -431.78539      50.870805     -130.80714     -1215.4198      0.0051865267   0.0052        -0.000365919   -0.0045668663   0.0051865267  -0.00036598596 -0.0045773263   32.005587      8.0822449      6.8406541      16.220968     -26.556528      10.075962      59.471326      53.129088      60.951136      1              192584.7       1.2463058      9196.2557      18529.325     -4157.4702      183.57559     -493.73698      24399.295     -19796.329      4109.2298      26           
     26200   151.01125      27833.031      9479.4107      37312.442     -90.486062     -179.17491     -17.500476     -74.782797      0.005226319    0.00524        0.00034569542 -0.0056298915   0.005226319    0.00034563569 -0.0056457991   26.756006      7.6608581     -5.0093759      14.239412     -15.905672      10.991835      59.473693      53.166909      60.886046      1              192523.65      1.2467011      9142.0201      18489.602     -4200.3868      203.56882     -418.45603      24413.143     -19796.461      4198.2264      26.2         
     26400   149.09307      27824.87       9359.0013      37183.871      339.05458     -454.71925      502.02166      969.86134      0.0052661097   0.00528       -7.879927e-05  -0.006513023    0.0052661097  -7.8802375e-05 -0.0065343253   30.667258      6.4415322     -4.0603452      8.6384292     -29.615816      18.520372      59.476059      53.144348      60.831971      1              192278.69      1.2482893      9175.891       18576.773     -4250.4759      191.59916     -488.45847      24414.839     -19795.298      4131.0824      26.4         
     26600   151.30988      27796.488      9498.1567      37294.644      156.63335     -62.593719      983.40581     -450.91205      0.0053058988   0.00532       -0.00081884526 -0.0052303998   0.0053058988  -0.0008191807  -0.0052441262   26.624393     -0.68769463    -7.6868742      3.5032583     -14.068793      8.4742946      59.478426      53.105016      60.910507      1              192392.09      1.2475536      9196.0051      18504.244     -4248.7582      191.94198     -464.38499      24414.606     -19797.165      4153.0553      26.6         
     26800   148.69269      27794.607      9333.8681      37128.475     -76.190542      138.50335      153.02484     -520.09982      0.0053456863   0.00536       -0.0024922227  -0.0043839827   0.0053456863  -0.0024953335  -0.0043936206   28.145327     -1.3089194     -9.6944088      12.967402     -10.024724      12.717599      59.480792      53.016078      60.962334      1              192240.96      1.2485343      9264.6378      18505.8       -4273.772       188.65871     -490.57938      24395.897     -19796.036      4109.2817      26.8         
     27000   149.80462      27795.239      9403.667       37198.906     -60.383677     -64.344039      256.32667     -373.13366      0.0053854723   0.0054        -0.0025460326  -0.00193735     0.0053854723  -0.0025492793  -0.0019392291   18.64315      -3.1865193      9.7419641      19.930429     -15.250114      11.927573      59.483159      53.013218      61.112143      1              192710.65      1.2454913      9234.5733      18537.303     -4274.1692      195.31636     -518.12665      24415.208     -19794.866      4102.216       27           
     27200   150.74712      27831.534      9462.8307      37294.364     -55.17379      -534.92428      219.06291      150.33999      0.0054252566   0.00544       -0.00305131    -0.00092286264  0.0054252566  -0.0030559747  -0.00092328874  19.159799     -1.1128653      7.6836206      5.3390801     -22.98191       11.249544      59.485525      52.986363      61.174261      1              192816.48      1.2448077      9088.5761      18590.38      -4207.1124      197.98901     -432.42103      24391.374     -19797.252      4161.7011      27.2         
     27400   149.46494      27775.786      9382.3443      37158.13      -101.34958     -775.88117     -478.36431      950.19674      0.0054650394   0.00548       -0.0028379569  -0.0025168109   0.0054650394  -0.0028419916  -0.0025199834   14.601909     -6.418408       6.2699364      12.380057     -24.838728      9.2931612      59.487892      52.997703      61.076662      1              192557.71      1.2464805      9093.7346      18548.135     -4250.4549      192.835       -429.40015      24416.053     -19795.117      4191.5361      27.4         
     27600   150.3618       27813.021      9438.643       37251.664     -164.39211     -868.27154     -224.51873      599.61394      0.0055048206   0.00552       -0.0010443902  -0.0033828731   0.0055048206  -0.0010449359  -0.0033886079   3.811277      -4.0455258      2.6261683      16.223968     -26.566472      12.868936      59.490258      53.093028      61.023633      1              192744.24      1.2452743      9174.6445      18567.864     -4262.2348      185.36885     -468.8445       24409.023     -19792.801      4147.3778      27.6         
[...]
    744000   149.67665      28451.351      9395.634       37846.985     -649.24671     -1723.7468     -686.71059      462.71722      0.13871792     0.1488        -0.049021709   -0.061017249    0.13871792    -0.050264045   -0.06295817     232.536       -14.484447     -12.542196      24.232821     -19.416385      5.9504953      67.96723       50.543104      57.494635      1              197509.87      1.2152276      9149.4494      18697.592     -4110.869       196.70646     -218.6797       24530.701     -19793.549      4518.4725      744          
    744200   150.5571       28541.524      9450.9025      37992.426     -1012.7707     -2410.6681     -267.46591     -360.17808      0.13875274     0.14884       -0.047925509   -0.061094737    0.13875274    -0.049112      -0.063040696    246.72864      18.428264      11.910942      19.140147     -14.208916      1.4722509      67.969596      50.601365      57.489891      1              197728.11      1.2138863      9334.6086      18659.559     -4142.7757      204.28266     -226.16506      24506.283     -19794.268      4485.8497      744.2        
    744400   150.29927      28450.999      9434.7177      37885.717     -1092.5122     -2844.803      -724.10402      291.37032      0.13878755     0.14888       -0.046936315   -0.062285027    0.13878755    -0.048073552   -0.064309243    229.98483     -4.2936063     -11.737199      12.746305      0.20348272    -2.6021495      67.971963      50.65394       57.417008      1              197689.5       1.2141234      9129.2091      18640.1       -4125.7893      209.07336     -122.32578      24516.1       -19795.368      4598.4061      744.4        
    744600   150.21327      28388.856      9429.3196      37818.176     -890.61828     -1962.2749     -92.766307     -616.81362      0.13882237     0.14892       -0.047243115   -0.061053452    0.13882237    -0.048395513   -0.062996725    249.0758       7.4353061     -8.0377467      20.219959     -17.051869     -1.7173474      67.974329      50.637634      57.492419      1              197892.31      1.2128791      9185.0452      18632.181     -4148.0688      195.14316     -214.90095      24534.427     -19794.97       4524.5562      744.6        
    744800   151.97242      28440.86       9539.7461      37980.606     -621.34135     -2375.8031     -65.251024      577.03007      0.13885719     0.14896       -0.047641206   -0.059891438    0.13885719    -0.048813431   -0.061759919    246.44103     -15.00991       1.0842812      30.574063     -11.99101      -0.10213181     67.976696      50.616476      57.56357       1              198061.32      1.2118441      9113.6603      18727.432     -4205.7366      193.64219     -141.56788      24546.128     -19792.699      4611.8619      744.8        
    745000   150.45878      28518.183      9444.7308      37962.913     -1047.3924     -2691.4932     -399.37027     -51.313647      0.138892       0.149         -0.047220227   -0.059926286    0.138892      -0.04837149    -0.061796988    245.3056       8.784453       14.457933      20.647301     -9.4154627      0.60090591     67.979063      50.63885       57.561436      1              198148.43      1.2113114      9211.3366      18668.306     -4197.0206      195.66315     -131.44698      24564.238     -19792.894      4639.8971      745          
    745200   150.42768      28426.16       9442.7787      37868.938     -782.19846     -2413.3112     -256.41869      323.13451      0.13892681     0.14904       -0.047485569   -0.060912408    0.13892681    -0.048650021   -0.062846522    250.30033      2.3790479      3.798017       7.8059547     -10.416328      5.4328358      67.981429      50.624748      57.501055      1              197892.33      1.2128789      9121.3708      18584.426     -4110.3608      198.7561      -93.611627      24518.008     -19792.428      4631.9678      745.2        
    745400   150.60439      28332.704      9453.8711      37786.575     -753.01046     -2086.5049     -71.072943     -101.45348      0.13896162     0.14908       -0.046976262   -0.062189561    0.13896162    -0.048115467   -0.064207441    242.6853      -11.871039     -4.7027722      14.262431     -7.5212741      0.9359818      67.983796      50.651816      57.422854      1              197735.75      1.2138393      9082.1014      18562.915     -4166.8606      202.3145      -73.847124      24518.225     -19792.144      4652.2336      745.4        
    745600   149.83005      28374.512      9405.2633      37779.776     -952.95544     -2746.6427     -174.64294      62.419279      0.13899643     0.14912       -0.045243717   -0.061960029    0.13899643    -0.046299172   -0.063962718    232.9443       1.5727477     -14.21432       10.560549      3.1405351      3.0087569      67.986162      50.743899      57.436908      1              198150.61      1.211298       9208.8942      18609.731     -4174.9796      203.03842     -204.18078      24524.289     -19792.28       4527.8285      745.6        
    745800   150.9134       28455.318      9473.2683      37928.586     -901.07874     -2147.8848     -548.15145     -7.200008       0.13903124     0.14916       -0.045728181   -0.061138065    0.13903124    -0.046806722   -0.063086845    241.48685      18.384389      11.59535       14.932681     -8.4646902      9.4187903      67.988529      50.71815       57.487238      1              198230.51      1.2108098      9173.1436      18571.04      -4103.3061      196.98592     -93.046947      24501.229     -19790.727      4617.455       745.8        
    746000   148.79851      28462.103      9340.5108      37802.613     -780.36316     -2290.1837      304.73397     -355.63971      0.13906605     0.1492        -0.047612731   -0.061580343    0.13906605    -0.048783532   -0.063558035    219.94275      0.47785449    -0.92130116     13.703719     -4.3153874     -0.51232558     67.990895      50.617989      57.460157      1              197752.71      1.2137352      9209.7995      18706.03      -4201.9075      198.55399     -170.20692      24513.062     -19793.229      4549.6262      746          
    746200   149.21395      28327.566      9366.5893      37694.155     -531.11944     -1860.8538      25.774177      241.72136      0.13910085     0.14924       -0.048789415   -0.061760048    0.13910085    -0.050019806   -0.06374955     231.42999     -8.5466405     -5.8865815      19.298313     -12.324011     -0.15746566     67.993262      50.55545       57.449153      1              197477.44      1.2154271      9165.0683      18539.852     -4152.2155      198.35733     -145.41973      24515.041     -19793.119      4576.5031      746.2        
    746400   150.05833      28472.48       9419.5932      37892.073     -728.75122     -2358.7982      164.48869      8.0558293      0.13913566     0.14928       -0.049348721   -0.060090902    0.13913566    -0.050607973   -0.061972113    228.97835      4.7492099     -9.8440687      22.473847     -16.708473      3.7849185      67.995628      50.525724      57.551356      1              197719.32      1.2139403      9178.4479      18605.858     -4149.0824      198.76162     -109.69801      24539.43      -19791.238      4638.4946      746.4        
    746600   149.8619       28397.246      9407.2628      37804.509     -973.05445     -2928.4926     -198.32201      207.65121      0.13917046     0.14932       -0.050153862   -0.0589156      0.13917046    -0.051455267   -0.060722452    230.84066     -4.0866994      0.88201955     24.252279     -14.897039     -7.45895        67.997995      50.482932      57.623321      1              197805.77      1.2134097      9138.3148      18623.474     -4202.6527      197.95955     -77.786436      24511.686     -19793.75       4640.15        746.6        
    746800   150.73931      28475.541      9462.3407      37937.881     -668.39708     -2504.9046      440.31053      59.40282       0.13920527     0.14936       -0.050344851   -0.058632114    0.13920527    -0.051656362   -0.060421263    227.03297     -7.7018733      17.686864      14.73556      -13.564577     -3.7484611      68.000361      50.472781      57.640679      1              197832.46      1.213246       9205.5093      18688.223     -4218.2963      187.43562     -191.22359      24597.08      -19793.187      4612.6689      746.8        
    747000   150.4773       28455.533      9445.8934      37901.427     -816.57321     -1658.6583     -806.96624      15.904909      0.13924007     0.1494        -0.049425523   -0.059893094    0.13924007    -0.050688765   -0.061761681    227.0185       3.6375891     -7.0557139      11.608462     -11.809374      3.5561786      68.002728      50.521642      57.563468      1              197765.6       1.2136562      9201.7754      18625.637     -4183.3325      196.58795     -143.4933       24551.261     -19792.902      4614.8649      747          
    747200   151.20652      28310.972      9491.6686      37802.64      -358.96381     -1978.825       590.50975      311.4238       0.13927487     0.14944       -0.049553996   -0.061628568    0.13927487    -0.050823927   -0.063609425    234.90011     -4.7522504      9.6829153      18.082685     -7.7251793      9.3406593      68.005095      50.514814      57.457204      1              197380.7       1.2160228      9101.5035      18642.797     -4184.0454      198.80454     -101.10832      24446.167     -19793.147      4551.9124      747.2        
    747400   149.05678      28496.464      9356.723       37853.187     -85.341381     -1567.5622      742.95064      568.58744      0.13930967     0.14948       -0.048501591   -0.061436324    0.13930967    -0.049717264   -0.063404576    229.2713      -3.5053366     -12.260693      17.337036     -16.623507      5.5552064      68.007461      50.570747      57.468975      1              197646.62      1.2143868      9280.7746      18692.338     -4219.8829      215.11988     -179.0459       24500.681     -19793.52       4528.1147      747.4        
    747600   150.48046      28517.578      9446.0914      37963.669     -1149.4174     -2161.2209     -279.97079     -1007.0603      0.13934446     0.14952       -0.047346824   -0.062139177    0.13934446    -0.048504371   -0.064153717    255.00558      8.249075       12.562462      16.992595     -10.421779      8.1831574      68.009828      50.632122      57.425939      1              197745.18      1.2137815      9275.1458      18648.024     -4155.7887      206.8247      -167.5291       24502.593     -19791.692      4543.3718      747.6        
    747800   149.41131      28389.163      9378.9781      37768.141     -809.73238     -2184.9222     -394.90342      150.62844      0.13937926     0.14956       -0.047602565   -0.062855085    0.13937926    -0.048772858   -0.06491735     245.5035      -3.5583961     -5.0202946      6.9421344     -10.846946     -3.6768574      68.012194      50.618529      57.382103      1              197548.06      1.2149926      9174.7102      18586.594     -4171.6246      190.88828     -126.86483      24528.008     -19792.548      4608.5951      747.8        
    748000   150.5443       28447.693      9450.0989      37897.791     -284.57329     -1939.9274      959.9804       126.22711      0.13941406     0.1496        -0.047637879   -0.062587981    0.13941406    -0.048809938   -0.064632372    253.11043      8.9155661     -0.88303468     17.458441     -14.239033     -9.4028461      68.014561      50.616652      57.398458      1              197603.91      1.2146492      9136.4934      18655.216     -4141.2683      200.95855     -124.92483      24513.182     -19791.964      4596.2926      748          
    748200   151.19354      28355.808      9490.8537      37846.662     -482.16675     -1642.9942     -103.48692      299.98092      0.13944885     0.14964       -0.048149689   -0.061742628    0.13944885    -0.049347493   -0.063730984    239.7476       2.8179565     -3.1799209      21.405399     -17.495307      7.616416       68.016927      50.589451      57.45022       1              197682.7       1.2141651      9142.3265      18643.219     -4190.9505      202.26288     -118.54167      24469.356     -19791.864      4558.9505      748.2        
    748400   149.28637      28391.46       9371.1352      37762.595     -827.81852     -2096.851      -164.6679      -221.93663      0.13948364     0.14968       -0.049095086   -0.061143724    0.13948364    -0.050341207   -0.063092872    238.45786     -5.596461      -7.2512057      16.777296     -16.689961     -4.3478057      68.019294      50.539204      57.486891      1              197619.29      1.2145547      9128.2372      18689.835     -4170.9977      196.53666     -162.23078      24503.168     -19793.088      4547.849       748.4        
    748600   151.78475      28374.535      9527.9657      37902.501     -501.4551      -2215.9081      748.99371     -37.450887      0.13951843     0.14972       -0.049664845   -0.060039       0.13951843    -0.050940562   -0.061916893    233.38402     -2.7918975      2.3627754      10.728637     -15.903369      0.57030946     68.02166       50.508922      57.554534      1              197740.16      1.2138123      9099.2488      18675.734     -4163.0561      200.14981     -186.59553      24541.815     -19792.761      4562.4585      748.6        
    748800   150.67452      28410.18       9458.2737      37868.454     -885.64508     -1918.3808     -779.37403      40.819626      0.13955322     0.14976       -0.049276449   -0.060356771    0.13955322    -0.050531952   -0.06225502     263.07981     -5.8458661      8.8292469      8.7513865     -5.905482       4.319766       68.024027      50.529565      57.535077      1              197760.98      1.2136845      9108.4221      18687.148     -4132.1064      191.72703     -185.0032       24533.185     -19793.192      4554.9898      748.8        
    749000   150.23671      28431.334      9430.7905      37862.124     -779.42068     -2327.1647     -266.23558      255.13829      0.13958801     0.1498        -0.048643869   -0.062233627    0.13958801    -0.049866806   -0.06425443     232.93861     -6.5995847      8.7598193      12.444958     -8.9982869      6.6830682      68.026394      50.563186      57.420156      1              197504.16      1.2152627      9162.5452      18613.016     -4160.6121      200.82815     -131.56549      24542.075     -19794.953      4615.5566      749          
    749200   150.84584      28422.544      9469.0274      37891.571     -1132.1255     -2082.8967     -305.12084     -1008.359       0.1396228      0.14984       -0.046811183   -0.063296991    0.1396228     -0.047942266   -0.065389006    239.77533      2.4044719     -4.1746103      9.0064454     -12.055074     -7.0018792      68.02876       50.66059       57.355045      1              197667.12      1.2142608      9239.8941      18681.943     -4186.2822      193.79601     -190.6902       24477.076     -19793.193      4493.1929      749.2        
    749400   149.05137      28407.487      9356.3836      37763.871     -611.8814      -1793.9254     -297.433        255.71416      0.13965759     0.14988       -0.045708426   -0.06428807     0.13965759    -0.046786021   -0.066447617    231.69252      12.71434      -2.3423502      14.739187     -0.44889471    -6.3360287      68.031127      50.7192        57.294361      1              197693.29      1.2141001      9128.8364      18695.535     -4173.8223      196.10587     -140.22821      24492.459     -19791.398      4560.8321      749.4        
    749600   150.95161      28448.943      9475.6669      37924.61      -477.97837     -2010.9009     -83.328358      660.29415      0.13969237     0.14992       -0.046699885   -0.063527769    0.13969237    -0.047825509   -0.06563541     232.83517      8.7770271     -13.277333      20.844205     -4.2588479      0.25550984     68.033493      50.666505      57.340914      1              197655.24      1.2143338      9249.0296      18590.535     -4142.1771      200.30542     -186.25178      24530.425     -19792.922      4551.2508      749.6        
    749800   150.26461      28455.2        9432.5421      37887.742     -773.36007     -1727.4446     -590.98475     -1.6508811      0.13972716     0.14996       -0.04872538    -0.061534105    0.13972716    -0.049952488   -0.063508764    235.61454     -5.5360898     -9.3653367      18.384314      1.5475629     -0.77040818     68.03586       50.558853      57.462988      1              197662.05      1.214292       9156.9727      18736.49      -4157.3329      189.93823     -175.16023      24495.822     -19791.529      4529.1327      749.8        
    750000   148.52354      28477.609      9323.2502      37800.859     -1272.9898     -2779.896      -1032.3013     -6.772053       0.13976194     0.15          -0.048949717   -0.060468651    0.13976194    -0.050188344   -0.062374093    230.27461     -6.3957568      7.3282451      22.186194     -14.586071     -2.0417422      68.038226      50.54693       57.528226      1              197846.67      1.2131588      9121.7268      18711.435     -4075.3606      200.07519     -214.21038      24523.437     -19789.493      4519.733       750          
Loop time of 12265.8 on 16 procs for 750000 steps with 21060 atoms

Performance: 5.283 ns/day, 4.543 hours/ns, 61.145 timesteps/s, 1.288 Matom-step/s
98.9% CPU use with 16 MPI tasks x no OpenMP threads

MPI task timing breakdown:
Section |  min time  |  avg time  |  max time  |%varavg| %total
---------------------------------------------------------------
Pair    | 7563.2     | 7863.3     | 8365.4     | 237.3 | 64.11
Bond    | 1698.4     | 1753.8     | 1810.9     |  85.7 | 14.30
Kspace  | 1029.8     | 1573       | 1901.6     | 606.8 | 12.82
Neigh   | 469.38     | 469.46     | 469.56     |   0.2 |  3.83
Comm    | 178.65     | 180.02     | 181        |   4.7 |  1.47
Output  | 42.798     | 42.799     | 42.807     |   0.0 |  0.35
Modify  | 324.37     | 348.05     | 360.13     |  63.7 |  2.84
Other   |            | 35.36      |            |       |  0.29

Nlocal:        1316.25 ave        1364 max        1275 min
Histogram: 2 1 4 1 1 1 2 2 1 1
Nghost:        13592.8 ave       13674 max       13542 min
Histogram: 3 2 1 2 2 4 1 0 0 1
Neighs:         804932 ave      835669 max      761051 min
Histogram: 1 1 1 3 0 0 4 1 3 2

Total # of neighbors = 12878904
Ave neighs/atom = 611.5339
Ave special neighs/atom = 5.8019943
Neighbor list builds = 23116
Dangerous builds = 0

#-------------------Wrap up-------------------
write_restart  ${myid}.restart
write_restart  tensile_1_EPON_862_pxld_86.8_replicate_4_FF_PCFF_temp_150.restart
System init for write_restart ...
PPPM initialization ...
  using 12-bit tables for long-range coulomb (../kspace.cpp:342)
  G vector (1/distance) = 0.18015456
  grid = 16 15 15
  stencil order = 5
  estimated absolute RMS force accuracy = 0.023008943
  estimated relative force accuracy = 6.9290747e-05
  using double precision KISS FFT
  3d grid and FFT values/proc = 1690 256
Generated 66 of 66 mixed pair_coeff terms from sixthpower/sixthpower mixing rule
write_data     ${myid}.data
write_data     tensile_1_EPON_862_pxld_86.8_replicate_4_FF_PCFF_temp_150.data
System init for write_data ...
PPPM initialization ...
  using 12-bit tables for long-range coulomb (../kspace.cpp:342)
  G vector (1/distance) = 0.18015456
  grid = 16 15 15
  stencil order = 5
  estimated absolute RMS force accuracy = 0.023008943
  estimated relative force accuracy = 6.9290747e-05
  using double precision KISS FFT
  3d grid and FFT values/proc = 1690 256
Generated 66 of 66 mixed pair_coeff terms from sixthpower/sixthpower mixing rule
Total wall time: 3:24:26
