thermo_style   custom step temp pe ke etotal press pxx pyy pzz v_etrue v_eengx v_eengy v_eengz v_etruex v_etruey v_etruez                f_sxx_ave f_syy_ave f_szz_ave f_sxy_ave f_sxz_ave f_syz_ave lx ly lz v_dir vol density ebond eangle edihed                eimp evdwl ecoul elong epair v_Time

restart        ${nsteps} rst1.a.${myid} rst2.a.${myid}
restart        200 rst1.a.${myid} rst2.a.${myid}
restart        200 rst1.a.tensile_1_EPON_862_pxld_86.8_replicate_4_FF_PCFF_temp_300 rst2.a.${myid}
restart        200 rst1.a.tensile_1_EPON_862_pxld_86.8_replicate_4_FF_PCFF_temp_300 rst2.a.tensile_1_EPON_862_pxld_86.8_replicate_4_FF_PCFF_temp_300
dump           6 all atom 10000 dump.${myid} #every picosecond
dump           6 all atom 10000 dump.tensile_1_EPON_862_pxld_86.8_replicate_4_FF_PCFF_temp_300 
dump_modify    6 scale no sort id

#-------------------Run-------------------
run            ${steps}
run            750000

CITE-CITE-CITE-CITE-CITE-CITE-CITE-CITE-CITE-CITE-CITE-CITE-CITE

Your simulation uses code contributions which should be cited:

- Type Label Framework: https://doi.org/10.1021/acs.jpcb.3c08419

@Article{Gissinger24,
 author = {Jacob R. Gissinger, Ilia Nikiforov, Yaser Afshar, Brendon Waters, Moon-ki Choi, Daniel S. Karls, Alexander Stukowski, Wonpil Im, Hendrik Heinz, Axel Kohlmeyer, and Ellad B. Tadmor},
 title = {Type Label Framework for Bonded Force Fields in LAMMPS},
 journal = {J. Phys. Chem. B},
 year =    2024,
 volume =  128,
 number =  13,
 pages =   {3282–-3297}
}

CITE-CITE-CITE-CITE-CITE-CITE-CITE-CITE-CITE-CITE-CITE-CITE-CITE

PPPM initialization ...
  using 12-bit tables for long-range coulomb (../kspace.cpp:342)
  G vector (1/distance) = 0.1799426
  grid = 15 15 15
  stencil order = 5
  estimated absolute RMS force accuracy = 0.023249815
  estimated relative force accuracy = 7.0016126e-05
  using double precision KISS FFT
  3d grid and FFT values/proc = 1521 256
Generated 66 of 66 mixed pair_coeff terms from sixthpower/sixthpower mixing rule
Neighbor list info ...
  update: every = 1 steps, delay = 0 steps, check = yes
  max neighbors/atom: 5000, page size: 100000
  master list distance cutoff = 14
  ghost atom cutoff = 14
  binsize = 7, bins = 9 8 9
  1 neighbor lists, perpetual/occasional/extra = 1 0 0
  (1) pair lj/class2/coul/long, perpetual
      attributes: half, newton on
      pair build: half/bin/newton
      stencil: half/bin/3d
      bin: standard
WARNING: Inconsistent image flags (../domain.cpp:1051)
Per MPI rank memory allocation (min/avg/max) = 19.44 | 19.45 | 19.46 Mbytes
   Step          Temp          PotEng         KinEng         TotEng         Press           Pxx            Pyy            Pzz          v_etrue        v_eengx        v_eengy        v_eengz        v_etruex       v_etruey       v_etruez      f_sxx_ave      f_syy_ave      f_szz_ave      f_sxy_ave      f_sxz_ave      f_syz_ave          Lx             Ly             Lz           v_dir          Volume        Density         E_bond        E_angle        E_dihed        E_impro         E_vdwl         E_coul         E_long         E_pair         v_Time    
         0   299.99263      37907.129      18831.401      56738.53      -1224.4213     -1523.8666     -944.49658     -1204.9008      0             -7.1461671e-16  5.2780195e-16  3.457237e-16  -6.6613381e-16  4.4408921e-16  4.4408921e-16  0              0              0              0              0              0              59.657945      53.849194      61.656988      1              198075.06      1.21176        12653.755      22134.64      -2516.6187      392.40054      216.94017      24746.689     -19720.678      5242.9516      0            
       200   300.69361      37798.868      18875.404      56674.271      832.00491      230.63385      949.39857      1315.9823      3.99992e-05    4e-05          0.00025353712 -0.00053362765  3.99992e-05    0.00025350498 -0.00053377008  18.823041     -6.6097719      5.3082045     -5.9139094     -1.5799912     -3.1752485      59.660331      53.862847      61.624086      1              198027.48      1.2120512      12529.338      22256.055     -2659.2908      396.08297      284.28861      24710.706     -19718.312      5276.6823      0.2          
       400   299.74231      37632.037      18815.688      56447.724      541.27203      853.04351      762.19298      8.5795997      7.99968e-05    8e-05          0.0013897309  -0.00099385418  7.99968e-05    0.0013887661  -0.00099434838 -40.670632     -21.817956     -5.0081059     -18.359078     -10.25781       8.4344456      59.662718      53.92403       61.59571       1              198169.05      1.2111853      12552.578      22198.233     -2787.8425      385.86448      306.08536      24693.828     -19716.71       5283.2039      0.4          
       600   301.4808       37824.597      18924.818      56749.415     -100.08121     -1124.7619      451.76361      372.75464      0.0001199928   0.00012        0.0035154697  -0.0027845634   0.0001199928   0.0035093049  -0.0027884475   10.751552      5.3326946      20.51058      -4.729441      -4.6206872      8.944541       59.665104      54.038499      61.4853        1              198241.68      1.2107415      12623.386      22089.665     -2646.657       397.28675      372.58847      24707.256     -19718.928      5360.9163      0.6          
       800   298.61066      37949.582      18744.651      56694.232     -1251.0473     -1971.5778     -1256.4949     -525.06922      0.0001599872   0.00016        0.0059172576  -0.0035653918   0.0001599872   0.0058998194  -0.0035717629   14.690198      2.0703203     -23.147016      4.3760868     -5.2825701      10.584175      59.66749       54.167834      61.437157      1              198568.5       1.2087488      12777.482      22162.411     -2631.0628      413.30176      216.70755      24731.442     -19720.7        5227.4496      0.8          
      1000   295.81781      37801.059      18569.336      56370.395     -821.48148     -662.42049     -960.93507     -841.08889      0.00019998     0.0002         0.0072532113  -0.0035962462   0.00019998     0.0072270333  -0.0036027283   17.103705      16.426459      1.5667897      4.8994941     -18.180745      4.1916563      59.669877      54.239774      61.435254      1              198834.01      1.2071347      12483.823      22217.504     -2576.3592      408.94016      231.95055      24756.676     -19721.476      5267.1508      1            
      1200   301.64002      37775.739      18934.813      56710.552      815.68087      828.97672      923.55891      694.50697      0.0002399712   0.00024        0.0066388527  -0.0051754206   0.0002399712   0.0066169125  -0.0051888594  -4.9231975      13.546408      15.522018     -6.4850599      2.6604882      2.2759139      59.672263      54.206691      61.337887      1              198405.73      1.2097404      12540.429      22190.047     -2713.0588      404.79834      382.30229      24690.887     -19719.667      5353.5229      1.2          
      1400   300.9057       37770.544      18888.717      56659.261     -657.16819     -952.08364     -1136.1546      116.73369      0.00027996081  0.00028        0.0053515919  -0.0055520904   0.00027996081  0.0053373231  -0.0055675605   5.2249902      17.704844     -12.458697      9.7261137      1.9463405      5.4231734      59.674649      54.137373      61.314663      1              198084.91      1.2116998      12678.785      22105.765     -2721.9762      414.33988      310.95458      24700.996     -19718.32       5293.6307      1.4          
      1600   299.144        37610.988      18778.13       56389.118     -301.8097      -582.84806     -506.7177       184.13665      0.00031994881  0.00032        0.003132173   -0.0047570387   0.00031994881  0.003127278   -0.0047683894  -28.079006     -12.918506     -34.318373      0.49876036    -11.82166       6.0346687      59.677036      54.017859      61.363683      1              197813.55      1.213362       12488.213      22036.027     -2727.136       391.16639      429.12069      24712.724     -19719.127      5422.7178      1.6          
      1800   300.54915      37967.467      18866.335      56833.802     -184.10827      610.5017      -224.16101     -938.6655       0.00035993522  0.00036        0.0021351678  -0.0031490704   0.00035993522  0.0021328916  -0.0031540391  -0.28612625     10.542419      18.931343     -10.445185     -15.41961      -14.728586      59.679422      53.964171      61.462826      1              197944.14      1.2125615      12703.424      22134.673     -2568.4702      399.20483      312.98365      24708.539     -19722.888      5298.6351      1.8          
      2000   299.29615      37821.434      18787.681      56609.115     -396.70564     -749.37078     -301.7819      -138.96423      0.00039992002  0.0004         0.00082568905 -0.0020051005   0.00039992002  0.00082534836 -0.0020071134  -3.9297265     -1.8557962     -2.5439358     -7.7424659     -20.884209      1.0147337      59.681808      53.893657      61.533359      1              197920.26      1.2127078      12615.096      22320.802     -2792.1881      391.74553      289.47254      24716.344     -19719.838      5285.9783      2            
      2200   298.22841      37869.184      18720.656      56589.84       49.277831      252.31495     -177.48884      73.00739       0.00043990323  0.00044       -0.00042264658 -0.0014056576   0.00043990323 -0.00042273592 -0.0014066465   0.18078383    -1.2391117     -9.2823164     -3.0142842     -23.736146      3.5677344      59.684194      53.826435      61.570319      1              197800.03      1.2134449      12737.87       22076.853     -2651.9754      394.05086      351.99226      24677.581     -19717.188      5312.3853      2.2          
      2400   300.60819      38021.092      18870.041      56891.133     -462.35063     -1139.7182     -320.92837      73.594711      0.00047988484  0.00048       -0.00064599697  0.00018995802  0.00047988484 -0.00064620572  0.00018993998 -3.9541735     -8.3918646     -12.036483      11.661112     -18.700667     -4.5745013      59.686581      53.814408      61.6687        1              198079.74      1.2117314      12561.342      22196.078     -2546.708       400.31634      430.52683      24699.615     -19720.078      5410.0637      2.4          
      2600   300.52669      37758.272      18864.925      56623.198     -454.1877      -979.14284      345.062       -728.48226      0.00051986485  0.00052       -0.00045318058  0.0016697098   0.00051986485 -0.0004532833   0.0016683174   3.2350716     -6.2230095     -3.9146071      8.445816      -34.068049      21.626957      59.688967      53.824791      61.759937      1              198419         1.2096595      12679.252      22187.984     -2775.5662      387.95437      273.37473      24726.243     -19720.97       5278.6478      2.6          
      2800   297.73598      37802.211      18689.745      56491.956      601.54729      758.66636      978.61232      67.363182      0.00055984326  0.00056       -0.00030955281  0.0031087466   0.00055984326 -0.00030960074  0.0031039245   8.3755037      8.6521688      2.7986297      7.4047249     -5.5331508     -2.1830023      59.691353      53.832525      61.848664      1              198740.56      1.2077024      12673.827      22134.265     -2809.8199      416.28302      407.62838      24698.694     -19718.666      5387.656       2.8          
      3000   303.9772       37762.159      19081.524      56843.683      462.31596      1124.5959      501.46129     -239.10933      0.00059982007  0.0006         0.00036308506  0.0024959657   0.00059982007  0.00036301916  0.0024928559   8.5195299     -0.78212216     43.134714      3.0473853     -4.5115553      5.4978451      59.69374       53.868746      61.810882      1              198760.73      1.2075798      12760.713      22036.659     -2772.214       401.93016      370.71706      24681.362     -19717.007      5335.0716      3            
      3200   298.57232      37857.319      18742.244      56599.562     -206.4557       232.48401     -387.61577     -464.23535      0.00063979529  0.00064        0.0012953156   0.0010222489   0.00063979529  0.0012944774   0.0010217268  -0.84091246    -18.203048     -11.176435     -2.8929681     -12.004332      17.700104      59.696126      53.918946      61.720017      1              198661.44      1.2081833      12679.265      22206.634     -2740.2328      428.50157      289.41641      24711.646     -19717.912      5283.1511      3.2          
      3400   298.52612      37785.254      18739.344      56524.598      216.33823     -930.79698     -258.00841      1837.8201      0.0006797689   0.00068        0.0018592638  -0.00017411578  0.0006797689   0.0018575375  -0.00017413094 -5.1046077      2.2836998      4.7711297     -1.1554152     -10.778537      7.2096365      59.698512      53.949314      61.646252      1              198543.7       1.2088998      12681.418      22079.223     -2743.3004      393.45619      398.37596      24694.712     -19718.63       5374.4574      3.4          
      3600   301.26921      37951.334      18911.536      56862.87       599.6677       559.54515      1282.042      -42.58404       0.00071974092  0.00072        0.0019652104  -0.0020869414   0.00071974092  0.0019632819  -0.0020891221   18.438204      19.28045       23.355949      4.8856119      8.9324979      8.807274       59.700899      53.955019      61.528313      1              198192.73      1.2110406      12779.193      22252.314     -2808.4505      374.54859      375.0336       24700.846     -19722.151      5353.7288      3.6          
      3800   300.06076      37705.738      18835.678      56541.416      441.9913      -74.287014      1057.3782      342.88274      0.00075971135  0.00076        0.0018814827  -0.0031238124   0.00075971135  0.0018797149  -0.0031287016  -8.9462652     -22.351341     -39.944276     -7.9115983     -7.9922077      0.5954967      59.703285      53.950511      61.464383      1              197978.17      1.212353       12651.917      22015.533     -2723.9075      390.08179      422.31295      24673.478     -19723.677      5372.1142      3.8          
      4000   299.9915       37815.352      18831.33       56646.682      639.32539     -287.39264      314.69378      1890.675       0.00079968017  0.0008         0.001995134   -0.0019301045   0.00079968017  0.0019931464  -0.0019319695   1.8904581      16.68766      -22.776191     -5.9989313     -15.853352     -0.093808677    59.705671      53.956631      61.537983      1              198245.65      1.2107173      12607.05       22225.781     -2743.3687      406.51514      329.15553      24711.701     -19721.482      5319.3749      4            
      4200   299.36132      37880.852      18791.772      56672.624     -732.238       -993.8084      -921.01528     -281.89032      0.0008396474   0.00084        0.0001927777  -0.00036093555  0.0008396474   0.00019275912 -0.0003610007   20.698686      17.685103      18.573714     -7.9564092     -13.403443      15.0201        59.708058      53.859575      61.634734      1              198208.1       1.2109467      12694.82       22244.959     -2704.4643      382.52445      275.54778      24710.327     -19722.861      5263.0132      4.2          
      4400   299.09943      37865.129      18775.332      56640.462     -305.84859      202.83158     -342.44346     -777.93388      0.00087961303  0.00088       -0.00085542467  0.00034616179  0.00087961303 -0.00085579075  0.00034610189 -13.097546     -10.214564      6.2867145      8.3281448     -23.712335      3.0978348      59.710444      53.80313       61.678331      1              198148.35      1.2113118      12642.498      22351.612     -2821.191       411.08047      337.36583      24669.548     -19725.783      5281.1307      4.4          
      4600   299.56172      37809.483      18804.352      56613.835     -470.87775     -203.47745     -683.69852     -525.45728      0.00091957706  0.00092        0.00022364744  0.0014468787   0.00091957706  0.00022362243  0.001445833   -19.901268     -38.918407     -18.92582      -5.9720779     -19.415623      10.9623        59.71283       53.861237      61.746198      1              198588.55      1.2086268      12586.041      22276.966     -2774.4136      436.85042      368.63148      24636.715     -19721.308      5284.0386      4.6          
      4800   300.7668       38029.853      18879.998      56909.851     -219.227       -479.13698     -736.33821      557.79418      0.00095953949  0.00096        0.0018713726   0.0019566974   0.00095953949  0.0018696238   0.0019547856   11.166377      15.013001      9.6190645      6.4726415     -23.970318     -6.8326961      59.715217      53.949966      61.777632      1              199024.91      1.2059769      12732.051      22241.386     -2687.6098      419.46997      356.74613      24682.748     -19714.939      5324.5557      4.8          
      5000   297.49774      37921.83       18674.79       56596.62       989.94619      838.2143       937.53733      1194.087       0.00099950033  0.001          0.0015906429   0.00098110968  0.00099950033  0.0015893792   0.0009806287   26.21119       21.4605        38.082871      3.0757414     -5.1947868     -2.8350958      59.717603      53.934849      61.71748       1              198783.36      1.2074423      12669.525      22293.948     -2954.4083      407.37096      475.45099      24748.366     -19718.423      5505.3937      5            
      5200   298.81097      37834.668      18757.225      56591.892     -145.23681     -321.24161     -727.81479      613.34598      0.0010394596   0.00104       -9.326617e-05  -0.0018653862   0.0010394596  -9.327052e-05  -0.0018671282   3.260774       14.238415     -1.3278006     -5.5320564     -21.897376      5.5720377      59.719989      53.844172      61.541974      1              197892.73      1.2128765      12720.292      22031.118     -2702.8326      404.58693      395.99338      24706.717     -19721.207      5381.5028      5.2          
      5400   301.48212      38043.266      18924.901      56968.167     -1124.9651     -1822.7291     -588.10328     -964.06303      0.0010794172   0.00108       -0.0019163092  -0.0030748741   0.0010794172  -0.0019181476  -0.0030796113  -13.82201      -9.7473541     -26.689889     -3.4077411     -9.4093492     -8.0684971      59.722376      53.746002      61.4674        1              197300.46      1.2165174      12650.848      22187.205     -2611.9504      410.48324      415.60413      24707.758     -19716.682      5406.68        5.4          
      5600   303.67152      38003.374      19062.336      57065.709     -643.82415     -888.26533     -571.232       -471.97512      0.0011193733   0.00112       -0.0019870141  -0.0018385974   0.0011193733  -0.0019889908  -0.0018402897  -32.703482     -3.4349995     -13.150098      5.7807513     -29.632202     -3.878614       59.724762      53.742195      61.543626      1              197539.02      1.2150482      12779.14       22188.686     -2533.7549      421.36448      148.9792       24719.701     -19720.742      5147.938       5.6          
      5800   300.02926      37794.315      18833.7        56628.015      201.21114     -145.49253      541.10806      208.01789      0.0011593277   0.00116       -0.0023232538  -1.5927714e-05  0.0011593277  -0.0023259568  -1.5927841e-05 -8.4426725      2.306551      -10.652575     -4.7514176     -14.020731      2.4750564      59.727148      53.724089      61.656006      1              197840.97      1.2131938      12578.589      22247.617     -2605.6413      393.04662      166.30501      24732.712     -19718.313      5180.7035      5.8          
      6000   299.553        37843.755      18803.804      56647.559     -315.13269     -641.68334     -273.53674     -30.178         0.0011992806   0.0012        -0.0031505064   0.0015159085   0.0011992806  -0.0031554797   0.0015147607   30.358623      5.0001565      10.803556     -5.3037403     -20.613062      7.5136494      59.729535      53.679542      61.750454      1              197987.64      1.212295       12611.412      22207.43      -2667.2123      410.29868      297.34575      24705.08      -19720.598      5281.8274      6            
      6200   302.99978      37891.297      19020.169      56911.465      25.617956     -91.885987      614.57487     -445.83502      0.0012392318   0.00124       -0.0030243919   0.0016016737   0.0012392318  -0.0030289746   0.0016003924   14.65167      -12.258157      13.116254      13.674036     -21.196869      3.9697198      59.731921      53.686333      61.755742      1              198037.56      1.2119895      12594.869      22220.075     -2602.5954      409.74564      269.07982      24722.102     -19721.98       5269.2027      6.2          
      6400   297.65229      37839.221      18684.491      56523.712      491.95117      505.47853      154.82763      815.54736      0.0012791815   0.00128       -0.0027901762   1.0342863e-05  0.0012791815  -0.002794076    1.034281e-05   8.5067163      7.6309028      3.5104545      0.99146447    -8.5193046     -8.9570825      59.734307      53.698945      61.657626      1              197777.27      1.2135845      12505.043      22224.576     -2645.6475      405.62862      399.49024      24668.816     -19718.685      5349.6209      6.4          
      6600   300.9325       37895.684      18890.399      56786.084      136.2279       807.9565       401.76018     -801.03297      0.0013191296   0.00132       -0.00265083    -0.00025834337  0.0013191296  -0.0026543497  -0.00025837675  25.902292     -1.1055664     -6.4647335      6.7153936     -17.623539     -0.45043035     59.736693      53.706449      61.641059      1              197759.66      1.2136926      12713.376      22159.329     -2637.0877      378.69943      278.7742       24722.592     -19719.999      5281.3678      6.6          
      6800   299.20113      37753.465      18781.716      56535.181     -762.28317     -1421.9957      82.998549     -947.85233      0.001359076    0.00136       -0.0017540413  -0.00021734862  0.001359076   -0.0017555815  -0.00021737225 -23.574447     -12.224979     -0.092781659    9.0286969     -9.8806293     -12.163803      59.73908       53.75474       61.643587      1              197953.51      1.2125041      12552.515      22216.636     -2608.7249      395.35529      202.54654      24713.848     -19718.711      5197.6837      6.8          
      7000   298.39781      37833.693      18731.289      56564.983      405.48128      213.29436      254.92474      748.22473      0.0013990209   0.0014        -0.00062138122 -0.00091973078  0.0013990209  -0.00062157436 -0.000920154    1.6252567      1.6002752      3.8967624     -9.7692414     -4.6433863     -3.4052723      59.741466      53.815733      61.60028       1              198046.8       1.2119329      12634.562      22268.876     -2809.4166      410.63505      348.66301      24701.625     -19721.251      5329.0368      7            
      7200   300.36122      37950.963      18854.539      56805.501     -131.8026      -242.67622     -232.19378      79.462197      0.0014389642   0.00144        0.00046924883 -0.0014605352   0.0014389642   0.00046913877 -0.0014616028   7.2533947     -2.2210425     -7.2921157      6.0856147     -0.89481131     4.745379       59.743852      53.874463      61.566936      1              198163.52      1.2112191      12631.975      22370.963     -2696.9883      404.80607      241.28346      24720.494     -19721.571      5240.2064      7.2          
      7400   297.30511      37830.412      18662.698      56493.11       36.909921      415.36052      541.05876     -845.68952      0.0014789059   0.00148        0.0006778165  -0.0011730903   0.0014789059   0.00067758689 -0.0011737789  -18.199587     -5.6928236     -8.4088409     -14.939223     -27.460384     -5.0738182      59.746239      53.885694      61.584659      1              198269.81      1.2105698      12584.257      22086.137     -2689.3874      408.08716      446.26382      24715.573     -19720.519      5441.318       7.4          
      7600   299.59706      37768.545      18806.57       56575.115     -601.34503     -174.31069     -517.54452     -1112.1799      0.001518846    0.00152        0.0015392419   0.00045303987  0.001518846    0.0015380585   0.00045293728  2.1146863      19.15386       0.1883907     -3.959746      -29.922553     -1.1863606      59.748625      53.932081      61.684921      1              198771.5       1.2075144      12562.572      22277.771     -2790.4602      412.11869      291.05721      24737.324     -19721.839      5306.5429      7.6          
      7800   300.05578      37916.956      18835.365      56752.321     -75.873936      324.70783     -561.11873      8.7890942      0.0015587845   0.00156       -0.000872596   -0.00047062325  0.0015587845  -0.00087297694 -0.00047073403  28.13346       43.856202      26.528297      5.5029243     -3.4979337     -3.1025269      59.751011      53.802206      61.627971      1              198117.67      1.2114994      12588.822      22430.949     -2779.3948      398.81469      296.91065      24699.235     -19718.381      5277.7648      7.8          
      8000   299.77961      37773.653      18818.029      56591.682      437.40459     -265.83369      1427.7577      150.28979      0.0015987214   0.0016        -0.0037866524  -0.001381734    0.0015987214  -0.0037938399  -0.0013826895  -1.5108439     -40.122688     -8.0010748     -11.014555      2.607372      -15.74954       59.753398      53.645286      61.571794      1              197367.65      1.2161032      12450.022      22251.424     -2618.7527      410.84322      337.50351      24664.055     -19721.442      5280.1164      8            
      8200   297.19119      37731.747      18655.547      56387.294      171.265        375.97832     -81.111218      218.9279       0.0016386567   0.00164       -0.0024826907  -0.0019083261   0.0016386567  -0.0024857776  -0.0019101492  -27.204801     -39.003486     -26.044163     -5.9310567     -44.999991      11.152688      59.755784      53.715503      61.539326      1              197529.67      1.2151058      12537.002      22086.42      -2751.0024      398.78466      461.2073       24720.966     -19721.63       5460.5439      8.2          
      8400   299.57728      37865.147      18805.328      56670.475     -139.46619      341.42849     -467.84253     -291.98454      0.0016785904   0.00168        0.0019511538  -0.00088657231  0.0016785904   0.0019492528  -0.00088696554  1.3878648     -25.915631      18.152588      11.623888     -31.415896      8.7579021      59.75817       53.954262      61.602325      1              198618.71      1.2084433      12640.402      22341.275     -2762.3692      400.2702       207.19683      24758.239     -19719.866      5245.569       8.4          
      8600   301.39647      37963.349      18919.524      56882.873     -37.39932      -291.74784      413.62647     -234.07659      0.0017185225   0.00172        0.0040339249  -0.0021823192   0.0017185225   0.0040258104  -0.0021847039   33.433119      7.961036       26.737403     -3.9303978     -11.939436      10.432033      59.760557      54.066418      61.522433      1              198781.39      1.2074543      12559.32       22302.816     -2808.9629      393.90199      438.28638      24796.866     -19718.879      5516.2734      8.6          
      8800   298.95306      37915.195      18766.144      56681.34      -374.53385     -863.08979     -177.83027     -82.6815        0.001758453    0.00176        0.0037474716  -0.0043403911   0.001758453    0.0037404673  -0.0043498379   30.333012      33.564139      9.0030993     -15.143684     -14.143319      7.2927536      59.762943      54.050993      61.389372      1              198302.8       1.2103684      12643          22192.855     -2595.6724      393.84061      276.26175      24726.371     -19721.46       5281.1729      8.8          
      9000   300.57972      37760.954      18868.254      56629.208     -631.15124     -778.401       -654.36919     -460.68352      0.0017983819   0.0018         0.0029310689  -0.0043286325   0.0017983819   0.0029267817  -0.0043380281  -22.952388      6.0473463     -33.458851      3.4187808     -14.74316       1.8599983      59.765329      54.00703       61.390097      1              198151.76      1.211291       12605.903      22053.723     -2603.8427      398.95744      307.66546      24717.42      -19718.872      5306.2132      9            
      9200   302.50609      37925.273      18989.178      56914.452      126.8536       205.70849      168.58652      6.26578        0.0018383093   0.00184        0.0024485607  -0.0024416556   0.0018383093   0.0024455679  -0.0024446413  -34.018         1.727441      -21.738755      4.0020103     -15.394014     -4.7616944      59.767716      53.981047      61.506443      1              198439.7       1.2095333      12728.932      22199.978     -2701.3181      399.90088      336.0612       24678.285     -19716.566      5297.7806      9.2          
      9400   299.57427      37933.944      18805.139      56739.083     -866.98601     -377.49658     -1474.3959     -749.0655       0.001878235    0.00188        0.0011851988  -0.00056546627  0.001878235    0.001184497   -0.00056562621  14.245852      7.071094       21.179285     -12.12439      -14.330045     -6.7175604      59.770102      53.913016      61.622123      1              198570.3       1.2087379      12662.316      22167.336     -2563.7081      416.38275      313.66389      24658.175     -19720.222      5251.6169      9.4          
      9600   297.0596       37963.782      18647.286      56611.069      693.95493      578.82465      955.70178      547.33836      0.0019181592   0.00192        0.00030901771  0.00060365343  0.0019181592   0.00030896997  0.0006034713   7.0253003     -19.735851     -9.9011725     -1.2582978     -12.800405     -13.374347      59.772488      53.865835      61.694207      1              198636.53      1.2083348      12690.097      22210.889     -2708.4163      411.38653      393.29646      24687.971     -19721.441      5359.8262      9.6          
      9800   301.15176      38028.554      18904.163      56932.717     -340.70827      251.31023     -579.98659     -693.44843      0.0019580817   0.00196        0.00044534595  0.0014836775   0.0019580817   0.00044524682  0.001482578    13.946162      7.1481281      5.4117786     -6.1227628     -26.560209     -6.2007682      59.774875      53.873176      61.748467      1              198846.26      1.2070604      12740.237      22232.01      -2798.7128      424.63475      424.21334      24723.97      -19717.799      5430.3848      9.8          
     10000   300.9482       37884.447      18891.385      56775.831     -600.2546      -556.16332     -609.18194     -635.41854      0.0019980027   0.002         -9.4967097e-05  0.0015580161   0.0019980027  -9.4971607e-05  0.0015568036   19.413908      9.4483661      14.783232     -7.6497354     -11.501262      0.86301135     59.777261      53.84408       61.75305       1              198761.56      1.2075748      12646.575      22185.404     -2690.7543      387.87273      332.33203      24737.831     -19714.814      5355.3487      10           
     10200   299.77715      37857.799      18817.875      56675.674     -14.267913     -592.3801       235.77569      313.80067      0.002037922    0.00204       -0.00068996755  0.00085433908  0.002037922   -0.00069020569  0.00085397434  10.669479      0.15097233     2.9563541      4.5162727      6.0239614      5.4843179      59.779647      53.81204       61.709664      1              198511.64      1.209095       12590.017      22129.611     -2655.9039      399.51388      425.82951      24686.541     -19717.809      5394.5616      10.2         
     10400   301.27875      37881.083      18912.134      56793.217      424.81921      132.69434      530.31633      611.44697      0.0020778398   0.00208       -0.00055586216 -1.2221187e-05  0.0020778398  -0.00055601671 -1.2221262e-05 -6.8666632     -25.857962     -10.118618     -2.3531391     -5.4984073      1.1902926      59.782034      53.819261      61.656234      1              198374.3       1.2099321      12626.695      22151.224     -2685.1294      412.80593      351.62863      24739.943     -19716.085      5375.4873      10.4         
     10600   300.90923      38147.04       18888.939      57035.979      328.6206       426.17199      718.34271     -158.6529       0.002117756    0.00212       -0.00055608281 -6.591922e-05   0.002117756   -0.00055623749 -6.5921393e-05  2.5766061      28.578383     -8.6568824     -18.886548     -21.536269      9.6561354      59.78442       53.81925       61.652924      1              198371.53      1.2099491      12705.169      22321.455     -2652.1358      414.54958      384.88002      24688.212     -19715.09       5358.0017      10.6         
     10800   300.43751      37813.69       18859.327      56673.018     -644.7642      -1215.5399     -1267.1351      548.38248      0.0021576706   0.00216       -0.0025898512   0.00035920739  0.0021576706  -0.0025932107   0.00035914289  31.652562      5.9983779      11.693885     -3.3012913     -16.075678      5.9004404      59.786806      53.709733      61.679136      1              198059.93      1.2118526      12613.954      22112.486     -2678.3491      414.68723      356.24871      24708.009     -19713.345      5350.9127      10.8         
     11000   300.71616      37936.249      18876.819      56813.068      299.34179     -193.99036      241.45597      850.55978      0.0021975835   0.0022        -0.003624595    0.00064583336  0.0021975835  -0.0036311798   0.0006456249  -2.5943742     -31.254581     -13.646198     -13.492061     -16.159942      7.1688729      59.789192      53.654013      61.696808      1              197919.05      1.2127152      12776.194      22213.152     -2758.9074      386.25472      284.50766      24753.591     -19718.543      5319.5552      11           
     11200   302.56846      38001.056      18993.093      56994.149     -16.315962      267.70716      79.944719     -396.59977      0.0022374949   0.00224       -0.0022372346   0.0016479167   0.0022374949  -0.002239741    0.0016465604   7.3532672     -14.722084      7.6710271      2.753782      -18.541036      2.1600437      59.791579      53.728721      61.758593      1              198401.03      1.2097691      12575.878      22343.775     -2719.9192      385.95303      371.46231      24764.879     -19720.973      5415.3689      11.2         
     11400   301.83329      37649.609      18946.945      56596.554     -658.62597     -513.27957      98.828019     -1561.4264      0.0022774047   0.00228       -0.0014606726   0.0018142583   0.0022774047  -0.0014617404   0.0018126145   15.965325      33.88811       11.276101     -11.058947     -9.9486615      8.7042311      59.793965      53.770538      61.76885       1              198596.34      1.2085793      12507.62       22044.922     -2641.3267      394.71739      335.46612      24725.592     -19717.381      5343.6771      11.4         
     11600   301.94693      37913.266      18954.078      56867.344     -80.783789     -1199.9059      854.29544      103.25905      0.002317313    0.00232       -0.0019990885   0.0010230406   0.002317313   -0.0020010893   0.0010225177  -0.16161619    -11.120843     -3.1352151      1.2350386     -37.489519      6.7630731      59.796351      53.741545      61.720065      1              198340.41      1.2101389      12698.382      22178.586     -2669.9636      403.4349       363.8844       24658.295     -19719.353      5302.8267      11.6         
     11800   302.67519      37692.304      18999.793      56692.097      564.76104      160.86524      822.66398      710.7539       0.0023572196   0.00236       -0.001195068    0.00069051244  0.0023572196  -0.0011957827   0.00069027414  13.998745     -20.287653     -0.90107913     0.44612073    -21.098322      13.880061      59.798738      53.784841      61.699563      1              198442.18      1.2095183      12596.976      22124.751     -2761.2643      403.75439      345.059        24704.377     -19721.35       5328.0865      11.8         
     12000   298.58128      37851.138      18742.806      56593.944      271.50202     -596.3849       1190.671       220.22         0.0023971246   0.0024         0.0011539363  -0.00085206718  0.0023971246   0.001153271   -0.00085243039  20.269557      10.546231      12.750932     -13.580339     -17.39896      -4.6125244      59.801124      53.911333      61.604452      1              198610.18      1.2084951      12533.68       22273.395     -2754.0287      406.48103      360.09753      24751.47      -19719.957      5391.6107      12           
     12200   301.52798      37910.117      18927.78       56837.896     -216.11195      1145.1799     -651.62271     -1141.893       0.002437028    0.00244        0.0029934377  -0.0033141673   0.002437028    0.0029889663  -0.0033196713   34.110859     -0.30455028    -0.37034121    -12.575511     -10.516888      0.50147785     59.80351       54.010388      61.452646      1              198492.71      1.2092103      12772.478      22211.477     -2734.8916      402.34852      296.42713      24679.151     -19716.873      5258.705       12.2         
     12400   298.32473      37826.638      18726.702      56553.339     -735.45776     -398.77856     -929.48688     -878.10784      0.0024769299   0.00248        0.0043714852  -0.0050556253   0.0024769299   0.004361958   -0.0050684482  -3.1207452      3.9937724     -29.577168     -14.090169     -2.3269306     -4.7648178      59.805897      54.084595      61.345273      1              198426.05      1.2096166      12596.04       22147.769     -2615.2164      403.64637      311.4541       24701.498     -19718.553      5294.3991      12.4         
     12600   299.26553      37888.699      18785.759      56674.458     -1586.6713     -1273.2378     -2030.437      -1456.3392      0.0025168301   0.00252        0.005128829   -0.0042074319   0.0025168301   0.0051157214  -0.004216308    20.572305      16.035607     -12.350671     -11.444798     -21.988527      17.445401      59.808283      54.125377      61.39757       1              198752.89      1.2076274      12600.158      22183.922     -2632.4809      414.54843      340.60557      24700.694     -19718.747      5322.5523      12.6         
     12800   300.6762       37948.078      18874.311      56822.389     -578.37191      308.82813     -1257.446      -786.49792      0.0025567288   0.00256        0.0043438626  -0.0039690577   0.0025567288   0.0043344553  -0.0039769553   12.967371      22.335368      16.419263     -15.367761     -24.93178       1.856574       59.810669      54.083108      61.412268      1              198653.14      1.2082338      12687.559      22296.609     -2710.0262      401.6397       303.71958      24688.696     -19720.119      5272.2968      12.8         
     13000   299.85438      37650.909      18822.723      56473.632      172.13504      51.358408      382.87217      82.174539      0.0025966258   0.0026         0.0012167026  -0.0047746335   0.0025966258   0.001215963   -0.0047860684   0.62414829    -4.1483907     -0.42665053     4.5711026     -1.6804689      2.5036853      59.813056      53.914713      61.362598      1              197882.33      1.2129402      12496.799      22052.002     -2640.3443      388.38278      402.21792      24670.831     -19718.978      5354.0701      13           
     13200   301.37223      37655.618      18918.002      56573.621      19.311279      233.76252      639.56485     -815.39353      0.0026365213   0.00264        0.00064288571 -0.0027043485   0.0026365213   0.00064267915 -0.0027080119  -25.931503     -18.706015     -37.418464     -12.637587     -23.121969      23.491522      59.815442      53.883813      61.490246      1              198188.23      1.2110681      12530.77       22109.687     -2696.7995      393.03607      389.16983      24649.765     -19720.011      5318.9246      13.2         
     13400   300.71602      37849.907      18876.81       56726.717     -907.58426     -130.46151     -1360.4268     -1231.8645      0.0026764152   0.00268        0.00020345036  0.00037037059  0.0026764152   0.00020342967  0.00037030202  25.44032       28.217893     -3.2467965     -18.461374     -17.606016      8.4961164      59.817828      53.86015       61.679824      1              198719.88      1.207828       12746.635      22221.975     -2802.6373      394.86382      283.70828      24723.235     -19717.873      5289.07        13.4         
     13600   300.33645      37958.512      18852.983      56811.495     -12.668225      15.034334      285.46781     -338.50682      0.0027163075   0.00272       -0.0024793786   0.0028417727   0.0027163075  -0.0024824573   0.0028377425   9.7226238      11.254105      2.5441475      2.1773946     -25.485129      4.5445782      59.820215      53.715682      61.832203      1              198684.4       1.2080437      12704.286      22383.608     -2809.3795      417.07265      271.09745      24707.513     -19715.686      5262.9239      13.6         
     13800   299.24063      37960.011      18784.195      56744.206      158.16581      539.16221      472.57506     -537.23985      0.0027561982   0.00276       -0.0051235516   0.0034329799   0.0027561982  -0.005136722    0.0034271007   37.91652       5.0796529      12.19018       9.2156814     -15.355385      7.4067522      59.822601      53.573295      61.868655      1              198282.47      1.2104925      12565.299      22232.047     -2624.9031      415.58334      395.75072      24691.678     -19715.445      5371.9839      13.8         
     14000   300.15879      37743.966      18841.831      56585.797     -381.98383     -35.981274     -97.208319     -1012.7619      0.0027960873   0.0028        -0.0070597116   0.0035432321   0.0027960873  -0.0070847493   0.0035369696   10.770451      8.6644013      18.855057     -6.5800768     -15.74095       6.7434449      59.824987      53.469034      61.875453      1              197926.23      1.2126712      12563.42       22202.823     -2788.825       391.75181      340.72603      24749.636     -19715.565      5374.7966      14           
     14200   299.59133      37903.622      18806.21       56709.832      166.04196     -485.83392      834.25014      149.70965      0.0028359748   0.00284       -0.0075304797   0.0028479674   0.0028359748  -0.0075589769   0.0028439196  -35.205719     -22.88452      -20.70364      -5.0740721     -9.8693741      2.850959       59.827374      53.443684      61.832585      1              197703.21      1.2140391      12659.59       22331.319     -2793.4907      395.90521      302.7338       24722.766     -19715.201      5310.2984      14.2         
     14400   300.76558      37999.78       18879.921      56879.701     -68.437463     -858.58232      754.71923     -101.44929      0.0028758607   0.00288       -0.0067761497   0.0028608191   0.0028758607  -0.0067992121   0.0028567347   11.505394     -24.571358      7.8721133      18.200695     -28.013952      3.2925083      59.82976       53.484304      61.833377      1              197863.91      1.2130532      12506.856      22255.88      -2667.9731      414.68418      425.28447      24782.967     -19717.919      5490.3325      14.4         
     14600   298.80789      37734.357      18757.032      56491.389     -481.2521      -1073.9929      226.12644     -595.88986      0.0029157451   0.00292       -0.0052574874   0.0032034087   0.0029157451  -0.0052713566   0.0031982887   18.888174      11.466118     -8.5903312     -1.7447065     -11.76753       13.437222      59.832146      53.566083      61.8545        1              198242.05      1.2107393      12575.425      22124.594     -2684.9583      395.35232      294.26184      24747.529     -19717.847      5323.9435      14.6         
     14800   300.98462      37823.946      18893.671      56717.618     -258.95726     -429.24931      60.967977     -408.59044      0.0029556278   0.00296       -0.0027425166   0.0035410053   0.0029556278  -0.0027462842   0.0035347507  -4.4426513     -27.446361      18.980172     -5.5407879     -23.876788      4.7898376      59.834533      53.701512      61.875316      1              198818.06      1.2072315      12670.225      22143.577     -2808.9713      400.92373      396.89276      24736.862     -19715.563      5418.1914      14.8         
     15000   301.66439      37924.249      18936.342      56860.591     -287.14712      188.87574     -838.82929     -211.48782      0.002995509    0.003          0.00045639853  0.0022529394   0.002995509    0.00045629441  0.0022504053   0.87470239    -7.7865269      1.5816122     -3.0943108     -21.257265      9.4982695      59.836919      53.873771      61.795897      1              199207.75      1.20487        12704.458      22146.18      -2719.2759      385.78093      387.01062      24738.414     -19718.319      5407.1056      15           
     15200   298.0175       37668.928      18707.417      56376.345     -400.07707     -745.9886      -1380.3031      926.06051      0.0030353885   0.00304        0.0020499696   0.00016234494  0.0030353885   0.0020478712   0.00016233176  29.789141      30.770375      30.924871      3.2669206     -24.379172      5.6292373      59.839305      53.959583      61.666998      1              199116.81      1.2054203      12524.15       22080.037     -2710.9901      399.40944      318.86591      24773.045     -19715.59       5376.321       15.2         
     15400   300.42843      37695.189      18858.758      56553.947     -395.26157     -1185.7293     -718.78187      718.72644      0.0030752665   0.00308        0.0012578583  -0.002380885    0.0030752665   0.0012570679  -0.0023837238   31.454063      19.61877       2.6708322      15.064742     -29.179479     -1.2093101      59.841691      53.916929      61.51019       1              198461.41      1.2094011      12571.749      22099.075     -2779.8003      428.70906      371.06858      24727.648     -19723.26       5375.4564      15.4         
     15600   302.01845      37823.509      18958.568      56782.077      512.50027     -170.65146      709.13244      999.01983      0.0031151429   0.00312        0.0006403856  -0.0035088397   0.0031151429   0.00064018064 -0.0035150101   5.9749032     -19.327846     -33.067668      2.1177636     -26.359429      1.7101013      59.844078      53.883678      61.440643      1              198122.67      1.2114688      12606.443      22138.664     -2807.0788      419.91192      453.99525      24731.363     -19719.789      5465.5685      15.6         
     15800   298.72146      37816.283      18751.606      56567.889      434.27087      305.81344      238.9581       758.04107      0.0031550177   0.00316        0.0018563897  -0.0028434417   0.0031550177   0.0018546687  -0.0028474919   27.292872     -6.1876187     -10.85845       0.48104448    -2.3806233      22.332399      59.846464      53.949159      61.48167       1              198503.8       1.2091428      12638.608      22153.555     -2815.248       396.65882      401.88082      24759.039     -19718.21       5442.7095      15.8         
     16000   300.78127      37826.185      18880.906      56707.091      530.20667      64.687058      172.96926      1352.9637      0.0031948909   0.0032         0.0031711782  -0.0022188032   0.0031948909   0.0031661606  -0.0022212684   14.717058     -8.0145382      4.8906533      4.1528341     -10.209899      9.367759       59.84885       54.01996       61.520183      1              198896.75      1.206754       12614.542      22189.96      -2750.8444      390.14664      381.95096      24717.253     -19716.823      5382.3809      16           
     16200   301.49565      37890.628      18925.75       56816.377     -317.00675     -636.69994      175.13596     -489.45626      0.0032347625   0.00324        0.0033384672  -0.0018612197   0.0032347625   0.0033329069  -0.0018629539   42.862035      19.626264      14.472641      10.921662     -31.84178       15.256854      59.851237      54.028968      61.542231      1              199009.15      1.2060724      12557.71       22265.997     -2716.1694      399.5115       340.76631      24761.386     -19718.574      5383.5782      16.2         
     16400   297.62019      37877.698      18682.476      56560.174     -68.775789     -1560.0391      331.48835      1022.2234      0.0032746325   0.00328        0.0022628474  -0.0025236824   0.0032746325   0.002260291   -0.0025268723   28.415556      7.0883243      0.60537766     7.726079      -32.628325      1.8651615      59.853623      53.971047      61.501385      1              198671.78      1.2081204      12614.978      22252.72      -2892.131       410.17638      420.81598      24790.129     -19718.99       5491.9549      16.4         
     16600   298.09992      37719.743      18712.59       56432.333     -166.0086      -7.7421861     -789.85605      299.57244      0.003314501    0.00332        0.00044829445 -0.00288203     0.003314501    0.000448194   -0.002886191    14.061266      19.945672      10.871482      0.87891615    -6.675561       6.6543092      59.856009      53.873334      61.479291      1              198248.75      1.2106984      12685.781      22002.429     -2747.7091      409.36755      344.4543       24741.634     -19716.214      5369.8741      16.6         
     16800   301.64599      37765.848      18935.187      56701.036      714.7014       119.65923      1516.9782      507.46678      0.0033543678   0.00336       -0.0006618441  -0.0029592883   0.0033543678  -0.00066206322 -0.0029636757  -7.3096624     -18.695175     -17.267301      1.7582901     -20.190286      12.767472      59.858396      53.813554      61.474527      1              198021.32      1.2120889      12571.04       22262.501     -2777.316       405.0542       267.36218      24756.154     -19718.947      5304.5687      16.8         
     17000   300.39196      37870.358      18856.468      56726.826      743.95359      852.08171      971.99039      407.78866      0.0033942331   0.0034        -0.00037043172 -0.0026287693   0.0033942331  -0.00037050035 -0.0026322306   28.53066       5.7648031      2.6857965     -6.7940423     -24.950092     -4.5905772      59.860782      53.829247      61.494906      1              198152.62      1.2112857      12584.386      22167.276     -2732.0738      389.61051      435.29896      24744.547     -19718.686      5461.1597      17           
     17200   302.80156      37849.861      19007.725      56857.587      84.259966     -18.142442     -293.63364      564.55598      0.0034340967   0.00344       -0.00099349297 -0.0024776077   0.0034340967  -0.00099398681 -0.002480682    31.749075      2.4999489     -0.33981714     11.626844     -22.13206       1.7820806      59.863168      53.795695      61.504226      1              198067.03      1.2118092      12516.858      22209.749     -2720.9731      413.78998      354.80786      24792.529     -19716.899      5430.4372      17.2         
     17400   300.12199      37841.221      18839.521      56680.742     -1271.2507     -1983.0459     -482.07626     -1348.63        0.0034739588   0.00348       -0.0011659347  -0.0018927452   0.0034739588  -0.0011666149  -0.0018945387   11.856152     -23.592443     -8.0286767     -7.6275632     -15.42846       19.590946      59.865555      53.78641       61.540287      1              198156.85      1.2112599      12711.422      22221.785     -2652.76        400.94171      142.57063      24736.554     -19719.293      5159.8321      17.4         
     17600   297.12693      37881.127      18651.513      56532.639      476.54774      762.82361      521.76588      145.05371      0.0035138193   0.00352       -0.0018585948  -0.0018841155   0.0035138193  -0.0018603241  -0.0018858927   42.959182      17.903479      21.51533       5.5337448     -16.119259      5.2722339      59.867941      53.74911       61.540819      1              198029.04      1.2120416      12689.64       22258.63      -2829.7952      404.45249      350.24562      24723.883     -19715.93       5358.1989      17.6         
     17800   301.37887      37971.392      18918.419      56889.812     -364.36186     -957.3582      -971.71509      835.98771      0.0035536782   0.00356       -0.0020104747  -0.0021020853   0.0035536782  -0.0020124984  -0.0021042978   0.78323434    -15.809998     -1.1736717     -9.4584328     -2.0482289      8.0463024      59.870327      53.740932      61.52738       1              197963.55      1.2124426      12669.305      22181.017     -2651.8656      406.40975      313.62525      24768.108     -19715.207      5366.526       17.8         
     18000   299.19279      37815.781      18781.193      56596.974     -329.07797     -1257.0708      337.87318     -68.036253      0.0035935355   0.0036        -0.0015670119  -0.0038608418   0.0035935355  -0.001568241   -0.0038683141   0.15834588    -14.885256      9.0468078      3.53909       -12.280067     -3.1157733      59.872714      53.764812      61.41894       1              197710.34      1.2139954      12571.24       22194.475     -2618.7681      416.18957      277.09505      24693.863     -19718.313      5252.6447      18           
     18200   299.29684      37839.517      18787.724      56627.241     -942.807       -1748.6601     -551.79574     -527.96514      0.0036333912   0.00364        0.00073844925 -0.0054959219   0.0036333912   0.00073817673 -0.00551108     27.722061     -6.5498037     -25.759863     -12.960082     -25.126535      3.3656363      59.8751        53.888959      61.318126      1              197849.48      1.2131416      12549.847      22210.382     -2484.1869      395.31639      113.04523      24771.404     -19716.292      5168.1579      18.2         
     18400   303.30646      37920.796      19039.419      56960.215     -227.2063      -343.68666      533.27423     -871.20648      0.0036732454   0.00368        0.0028029914  -0.0069406391   0.0036732454   0.0027990703  -0.0069648374   23.347517      26.791834      5.0800798      5.9333914     -30.527887      14.520223      59.877486      54.000133      61.229049      1              197977.53      1.212357       12622.837      22400.828     -2676.2249      397.23036      175.85012      24717.189     -19716.913      5176.1264      18.4         
     18600   298.06861      37894.319      18710.625      56604.944     -52.888461      459.05086     -503.49529     -114.22096      0.0037130979   0.00372        0.0036339117  -0.0090816685   0.0037130979   0.003627325   -0.0091231583   16.534995      2.6023775     -14.015541     -1.4096177     -2.2112251      3.5220321      59.879873      54.044877      61.09704       1              197722.26      1.2139222      12636.596      22266.901     -2635.3541      410.31903      225.53975      24708.531     -19718.214      5215.857       18.6         
     18800   300.42437      37886.863      18858.503      56745.366     -145.44013      347.1122      -456.99491     -326.43769      0.0037529489   0.00376        0.0040579557  -0.0088415854   0.0037529489   0.0040497444  -0.0088809042   9.7949201      11.220553     -23.188902     -11.546714     -6.8761089      10.551826      59.882259      54.067712      61.111842      1              197861.61      1.2130672      12645.075      22176.509     -2646.2479      419.44945      319.60796      24692.596     -19720.126      5292.0775      18.8         
     19000   304.23703      37837.615      19097.834      56935.449     -898.88227     -1128.9506     -812.37383     -755.32236      0.0037927982   0.0038         0.0041297168  -0.0067746246   0.0037927982   0.0041212129  -0.0067976766  -5.7906429      14.788149     -6.0938835      2.9714692     -31.270322      19.576403      59.884645      54.071576      61.239285      1              198296.3       1.210408       12615.847      22171.412     -2605.1957      407.59431      250.7702       24716.263     -19719.075      5247.958       19           
     19200   298.0907       37992.398      18712.012      56704.409     -392.22065     -119.78053     -376.17815     -680.70328      0.003832646    0.00384        0.0017610871  -0.0049264227   0.003832646    0.0017595382  -0.0049385976  -0.17704613     15.605446      14.815706     -1.4450531     -9.6819882      13.467945      59.887032      53.944027      61.353239      1              198204.56      1.2109683      12785.993      22218.231     -2695.972       408.73677      288.29032      24707.593     -19720.474      5275.4089      19.2         
     19400   301.73805      37901.439      18940.966      56842.405     -177.06308      716.03871     -415.52186     -831.70609      0.0038724922   0.00388       -0.0011576157  -0.0034021848   0.0038724922  -0.0011582863  -0.0034079853  -10.230076     -2.0095614      9.0120275     -10.123021     -14.022175      12.601752      59.889418      53.786858      61.447219      1              197937.69      1.212601       12614.514      22246.068     -2677.3788      408.97994      298.93083      24729.517     -19719.192      5309.2553      19.4         
     19600   299.48484      37832.257      18799.526      56631.783     -109.60219     -649.25688     -35.587383      356.03768      0.0039123368   0.00392       -0.0030586666  -0.0029309371   0.0039123368  -0.0030633539  -0.0029352408   8.7252777     -12.758634     -0.4601352     -10.217649     -31.23714       19.620649      59.891804      53.684487      61.476275      1              197662.26      1.2142907      12632.659      22191.67      -2751.9864      397.62888      332.09193      24745.221     -19715.027      5362.286       19.6         
     19800   301.36709      37731.156      18917.68       56648.836     -502.24034      48.193222     -197.77333     -1357.1409      0.0039521798   0.00396       -0.0028536514  -0.0023473918   0.0039521798  -0.0028577309  -0.0023501513   19.254554     -27.34572      -20.031176     -13.773686     -12.588012      9.9982509      59.89419       53.695527      61.512255      1              197826.5       1.2132826      12533.779      22345.09      -2756.8649      399.22185      182.5297       24746.724     -19719.323      5209.9306      19.8         
     20000   299.9707       38011.715      18830.025      56841.739     -204.57183     -144.11878     -23.139072     -446.45764      0.0039920213   0.004         -0.0020878526  -0.0012328032   0.0039920213  -0.0020900352  -0.0012335637   13.845495      7.902997       24.030507      5.3111586     -17.300861      10.711563      59.896577      53.736765      61.580977      1              198207.5       1.2109503      12663.143      22329.38      -2773.2878      427.70136      322.61597      24759.989     -19717.826      5364.7786      20           
     20200   300.26833      37861.951      18848.707      56710.658      138.28848      208.31971     -175.6455       382.19123      0.0040318611   0.00404       -0.0011975158  -0.0018938887   0.0040318611  -0.0011982334  -0.0018956843  -5.8381095      1.0910486      7.6530306     -8.8219816     -15.146545      2.8107616      59.898963      53.784709      61.540216      1              198260.93      1.210624       12669          22292.597     -2863.1158      398.08972      327.90571      24755.323     -19717.849      5365.38        20.2         
     20400   297.61467      37612.947      18682.13       56295.077      105.98151      524.39096     -156.36233     -50.084097      0.0040716994   0.00408       -0.0022090921  -0.0023504108   0.0040716994  -0.0022115357  -0.0023531773   7.2303105      18.729564     -16.528738     -9.0295485     -16.32727       10.945847      59.901349      53.730236      61.512069      1              197977.43      1.2123576      12624.093      22067.284     -2793.9956      409.4028       320.49623      24707.136     -19721.468      5306.1635      20.4         
     20600   297.37493      37790.671      18667.08       56457.751     -290.4976       326.38303     -126.42354     -1071.4523      0.004111536    0.00412       -0.0026640992  -0.0015441794   0.004111536   -0.0026676543  -0.0015453729  -15.033864     -28.524761     -11.799069     -14.076737     -7.5896381      4.1344487      59.903736      53.705735      61.561778      1              198054.96      1.211883       12653.084      22119.469     -2708.3229      409.87967      311.92735      24725.287     -19720.653      5316.5622      20.6         
     20800   300.48605      37885.604      18862.374      56747.978     -691.96848     -437.91376     -1253.0687     -384.92296      0.0041513711   0.00416       -0.0019852927  -0.00028284358  0.0041513711  -0.001987266   -0.00028288359  9.1748418      9.8226773      12.091299     -10.842795     -20.182275     -12.65337       59.906122      53.742288      61.639549      1              198448.04      1.2094826      12672.311      22108.234     -2560.5917      405.20644      309.51662      24671.677     -19720.749      5260.4447      20.8         
     21000   301.14238      37974.568      18903.574      56878.142     -1508.0593     -1528.8071     -1294.7218     -1700.6491      0.0041912046   0.0042        -0.0019291037  -0.0002506096   0.0041912046  -0.0019309669  -0.00025064101  9.0805369      6.3680142      14.854242      10.663167     -17.981009     -3.12652        59.908508      53.745313      61.641536      1              198473.51      1.2093273      12696.177      22241.044     -2619.8361      418.50401      232.2709       24727.359     -19720.95       5238.6792      21           
     21200   299.23502      37714.26       18783.844      56498.104     -1242.8371     -408.29577     -2117.7676     -1202.4478      0.0042310365   0.00424       -0.0015640128  -0.00098647165  0.0042310365  -0.0015652372  -0.00098695853 -4.1218591     -3.9096511     -1.8421904      10.954332     -13.750868      9.7621956      59.910895      53.764973      61.596165      1              198407.88      1.2097274      12487.675      22223.747     -2705.276       392.90334      278.63256      24760.177     -19723.599      5315.2104      21.2         
     21400   301.65668      37865.03       18935.858      56800.888      750.99431      404.74556      1746.9545      101.28285      0.0042708669   0.00428       -0.0020236644  -0.0025280202   0.0042708669  -0.0020257148  -0.002531221   -17.65241       6.4319779      6.7787455     -5.7230647     -22.240223      7.123659       59.913281      53.740221      61.501118      1              198018.41      1.2121067      12666.036      22202.028     -2874.9599      387.55433      481.06848      24723.851     -19720.548      5484.3714      21.4         
     21600   302.01088      37746.673      18958.092      56704.765      994.60758      915.14703      804.79796      1263.8778      0.0043106956   0.00432       -0.0027420122  -0.004186265    0.0043106956  -0.0027457784  -0.004195052   -12.98194      -7.5990085     -8.1797332      10.482857     -22.526951      14.449351      59.915667      53.701539      61.398875      1              197554.78      1.2149513      12698.916      22200.899     -2835.0889      381.21681      304.27847      24714.212     -19717.76       5300.7303      21.6         
     21800   299.65168      37869.116      18809.999      56679.114      920.82603      1467.8162      964.51447      330.14742      0.0043505227   0.00436       -0.0023824263  -0.0030155612   0.0043505227  -0.0023852688  -0.0030201172  -26.838528     -16.745303     -41.516045     -0.29729426    -27.06327      -5.8069787      59.918054      53.720902      61.471057      1              197866.23      1.2130389      12665.877      22130.513     -2744.9324      397.32253      414.34567      24727.571     -19721.581      5420.3356      21.8         
     22000   300.72514      37957.161      18877.383      56834.543     -1011.2197     -2314.598       260.75475     -979.81589      0.0043903483   0.0044        -0.0016255721  -0.0006512201   0.0043903483  -0.0016268948  -0.00065143223 -0.69168181     15.654897      10.810943     -23.207658     -22.246179      4.9150465      59.92044       53.761658      61.616836      1              198493.84      1.2092034      12776.451      22227.712     -2738.8766      398.03296      324.71689      24692.383     -19723.259      5293.8412      22           
     22200   299.89368      37908.001      18825.19       56733.191     -1118.6796     -1761.7894     -250.73422     -1343.5153      0.0044301723   0.00444       -0.00076753957  0.00089638243  0.0044301723  -0.00076783427  0.00089598092 -2.0215755     -9.5958447      6.6472805      0.045174766   -16.948647      3.4931875      59.922826      53.807863      61.712256      1              198980.01      1.206249       12635.536      22278.435     -2617.6948      395.48573      211.73428      24727.012     -19722.507      5216.2385      22.2         
     22400   296.18204      37907.735      18592.199      56499.934     -219.62936     -924.49162     -243.32382      508.92736      0.0044699947   0.00448       -0.0011184958   0.00018181397  0.0044699947  -0.0011191218   0.00018179745  4.7842704      11.997725      28.403534     -5.7573084     -6.3129218     -8.640759       59.925213      53.788964      61.668198      1              198776.03      1.2074868      12631.399      22201.088     -2768.9715      396.98067      447.15961      24720.733     -19720.654      5447.239       22.4         
     22600   298.99298      38063.859      18768.65       56832.509     -226.89113      410.88674      18.683145     -1110.2433      0.0045098155   0.00452       -0.001801453   -0.00052090763  0.0045098155  -0.0018030776  -0.00052104335 -14.847633      6.7805726     -14.979879      3.8183472     -11.567007      13.556989      59.927599      53.752187      61.62487       1              198508.47      1.2091144      12650.362      22295.977     -2624.0301      423.57018      367.49974      24670.378     -19719.899      5317.9791      22.6         
     22800   300.08826      37805.102      18837.404      56642.506      1121.009       368.05868      1272.7385      1722.2299      0.0045496347   0.00456       -0.0012969225  -0.0020132351   0.0045496347  -0.0012977642  -0.0020152643   11.00421      -26.981529      11.138284      3.6302987     -10.861478      21.99158       59.929985      53.779356      61.532858      1              198320.16      1.2102625      12629.546      22042.222     -2697.2592      409.63124      423.65979      24712.317     -19715.015      5420.9617      22.8         
     23000   298.77819      37846.987      18755.167      56602.154     -553.2012      -659.32557     -1453.3914      453.11337      0.0045894523   0.0046         0.00047239353 -0.0026249707   0.0045894523   0.00047228199 -0.002628422    11.609525      13.548033     -22.04278      -13.648008     -18.074084      8.7812553      59.932372      53.874632      61.49514       1              198557.63      1.208815       12709.211      22042.106     -2647.9233      396.79852      394.84016      24667.33      -19715.375      5346.7948      23           
     23200   303.05306      37893.221      19023.513      56916.734     -344.89297      6.4927806     -1051.5874      10.415697      0.0046292684   0.00464       -0.00014603793 -0.0024549716   0.0046292684  -0.00014604859 -0.00245799     13.344034      22.088041      20.090355     -2.6692989     -18.148144      5.6350518      59.934758      53.84133       61.505622      1              198476.62      1.2093084      12674.677      22247.769     -2744.8752      404.46529      311.33146      24719.25      -19719.396      5311.1851      23.2         
     23400   299.7331       37756.93       18815.11       56572.04       294.16667      215.8774       267.7863       398.83632      0.0046690828   0.00468       -0.0019711587  -0.0035989348   0.0046690828  -0.001973104   -0.0036054266   8.7681711     -4.3442361     -5.7668743     -8.7004506      3.2312044      11.111035      59.937144      53.743049      61.435088      1              197895.01      1.2128625      12668.471      22232.208     -2811.2176      413.01483      308.02483      24665.176     -19718.747      5254.4537      23.4         
     23600   298.96425      37772.186      18766.846      56539.032      1080.1879      1065.6169      815.5987       1359.3482      0.0047088957   0.00472       -0.003194747   -0.0042649524   0.0047088957  -0.0031998611  -0.0042740733  -34.897571     -17.045184     -25.025161      14.884868     -5.8114679      0.010732573    59.939531      53.67716       61.394024      1              197528.13      1.2151152      12641.426      22171.588     -2855.6007      415.81862      410.83896      24708.573     -19720.458      5398.9542      23.6         
     23800   302.25554      37863.021      18973.45       56836.471      253.07804     -338.79489      1501.7188     -403.68975      0.004748707    0.00476       -0.0030876591  -0.002143509    0.004748707   -0.0030924357  -0.0021458096   2.2541296     -4.9448345     -14.415915     -2.4908906     -9.1674986      1.457848       59.941917      53.682926      61.524826      1              197978.12      1.2123534      12652.081      22310.427     -2869.7488      409.08986      381.31161      24699.393     -19719.533      5361.1721      23.8         
     24000   299.67985      38025.599      18811.767      56837.366     -226.89146     -71.50607      -443.0413      -166.12702      0.0047885167   0.0048        -0.0025075277   0.00027351999  0.0047885167  -0.0025106768   0.00027348259  12.364136     -6.2173613      12.649047     -12.161891     -16.589676      2.2127338      59.944303      53.714166      61.673852      1              198581.06      1.2086724      12623.936      22279.032     -2629.7935      425.54952      319.23156      24727.546     -19719.902      5326.8755      24           
     24200   300.49246      37753.31       18862.777      56616.087     -551.91666     -962.50678     -1059.9701      366.72688      0.0048283249   0.00484       -0.0020895194   0.00086676435  0.0048283249  -0.0020917055   0.00086638893  47.228178      17.184297      20.960404     -12.531637     -17.800761      10.284179      59.946689      53.736675      61.71043       1              198790.02      1.2074019      12553.216      22086.973     -2631.3521      420.40973      370.95787      24673.762     -19720.656      5324.0632      24.2         
     24400   300.0833       38075.848      18837.092      56912.941     -623.99073     -832.34873     -1046.2501      6.6266064      0.0048681314   0.00488       -0.0025813596   0.0011875957   0.0048681314  -0.0025846971   0.0011868911   18.558676      0.94137295     7.005857      -0.99553922    -13.257314      11.062634      59.949076      53.71019       61.730211      1              198763.64      1.2075621      12803.783      22340.061     -2722.8424      412.30882      300.6261       24664.231     -19722.319      5242.5381      24.4         
     24600   299.81552      38108.697      18820.283      56928.981      325.73114      666.25336     -24.585532      335.5256       0.0049079364   0.00492       -0.0038095447   0.0003652831   0.0049079364  -0.0038168195   0.0003652164   7.6617002     -10.162654     -6.4462221      1.9600218     -22.058416      2.3313033      59.951462      53.644053      61.67951       1              198363.74      1.2099966      12587.867      22383.998     -2654.0921      400.27371      427.73059      24684.485     -19721.565      5390.6506      24.6         
     24800   301.37335      37740.749      18918.073      56658.822     -748.84421      128.53094     -790.51565     -1584.5479      0.0049477397   0.00496       -0.0036674215   8.1331722e-05  0.0049477397  -0.003674163    8.1328415e-05  7.6429451      3.5998798     -1.7604448     -5.7888878     -22.912624      12.110501      59.953848      53.651706      61.662003      1              198343.62      1.2101193      12556.815      22229.801     -2733.181       392.31164      309.97139      24703.44      -19718.409      5295.0031      24.8         
     25000   297.50944      37818.05       18675.524      56493.575      336.80601      411.02467      410.74848      188.64487      0.0049875415   0.005         -0.0040742863  -0.00046422728  0.0049875415  -0.0040826088  -0.00046433507  2.6630287      0.10832619     2.6374032     -4.1796024     -9.063228       4.6442616      59.956235      53.629797      61.628365      1              198162.35      1.2112262      12413.711      22230.248     -2584.5246      419.77738      317.64143      24741.877     -19720.68       5338.8381      25           
     25200   301.39723      37898.806      18919.572      56818.378      366.47939     -386.06299      1696.8515     -211.3503       0.0050273417   0.00504       -0.0037097858  -0.0017278054   0.0050273417  -0.0037166842  -0.0017292998   19.230146     -11.789497      9.6755004      8.0652165     -10.761822     -3.9359765      59.958621      53.649425      61.550457      1              197992.16      1.2122674      12575.141      22239.012     -2612.8104      406.87816      279.03445      24732.082     -19720.531      5290.5852      25.2         
     25400   298.83172      37984.631      18758.527      56743.159     -546.19993      800.98279     -657.394       -1782.1886      0.0050671403   0.00508       -0.0019407892  -0.002953291    0.0050671403  -0.001942675   -0.0029576606   32.633553      14.574188      1.4153533     -17.484755     -22.478674      8.8690895      59.961007      53.744684      61.474897      1              198108.11      1.2115579      12597.523      22330.769     -2586.897       419.63511      225.36587      24717.091     -19718.856      5223.6011      25.4         
     25600   299.70647      37662.077      18813.438      56475.514     -232.25589      261.49451     -1451.3108      493.04864      0.0051069374   0.00512       -0.0019033439  -0.0040441093   0.0051069374  -0.0019051575  -0.0040523088  -6.0862287     -5.3153367     -19.720924     -1.5326113     -17.888725     -0.72543797     59.963394      53.746701      61.40764       1              197906.67      1.2127911      12585.761      22202.331     -2741.5119      403.29009      213.43605      24719.491     -19720.721      5212.2063      25.6         
     25800   300.96905      37768.268      18892.693      56660.961      603.92352      652.8069       721.02497      437.93869      0.0051467328   0.00516       -0.00044182488 -0.0040598635   0.0051467328  -0.00044192251 -0.0040681271   5.3018612     -13.883955     -20.897887     -4.7122515     -12.120058      8.4280516      59.96578       53.825402      61.406669      1              198201.21      1.2109887      12669.54       22230.739     -2840.0222      398.18709      322.82019      24709.897     -19722.893      5309.8241      25.8         
     26000   299.56456      37856.594      18804.53       56661.124     -185.70002     -387.03588     -98.624959     -71.43922       0.0051865267   0.0052         0.00049983189 -0.003363872    0.0051865267   0.00049970701 -0.0033695426   8.6032161      28.226144      13.085092     -1.3028892     -12.617951      11.220691      59.968166      53.87611       61.449582      1              198534.47      1.208956       12676.252      22280.474     -2770.1836      409.31684      287.0533       24694.168     -19720.486      5260.7351      26           
     26200   296.51527      37724.286      18613.117      56337.403     -353.95758     -495.78802      135.69058     -701.7753       0.005226319    0.00524       -0.0018752899  -0.0042384929   0.005226319   -0.0018770505  -0.0042475008   20.172006      25.170561      4.9918221     -9.3493059     -9.9983248     -7.0527424      59.970553      53.748211      61.395655      1              197897.23      1.2128489      12568.971      22204.535     -2651.4025      397.83239      221.68933      24705.606     -19722.945      5204.3498      26.2         
     26400   300.2132       37827.205      18845.247      56672.451      798.37585     -306.33126      1268.7507      1432.7081      0.0052661097   0.00528       -0.0057627423  -0.0044990003   0.0052661097  -0.005779411   -0.0045091513   18.023135     -4.3881198     -20.319128      6.0993027     -16.586779      0.92598115     59.972939      53.538875      61.379593      1              197082.73      1.2178613      12551.357      22254.583     -2695.5371      394.9681       324.40065      24712.733     -19715.3        5321.8331      26.4         
     26600   302.09487      37711.131      18963.364      56674.495      582.24874     -598.07928      262.29588      2082.5296      0.0053058988   0.00532       -0.0063812806  -0.001578439    0.0053058988  -0.006401728   -0.001579686   -19.408444     -24.699813     -30.97644       5.1265434     -15.746429      3.9096521      59.975325      53.505567      61.559666      1              197545.82      1.2150064      12560.671      22165.023     -2723.0072      404.59733      271.30686      24751.952     -19719.413      5303.846       26.6         
     26800   297.28988      37741.484      18661.741      56403.226     -213.28519      342.33259     -364.7497      -617.43845      0.0053456863   0.00536       -0.0050569843   0.00088158555  0.0053456863  -0.0050698141   0.00088119718  7.9919789     -20.275776      18.371363      7.9104489     -5.1054173      0.69138087     59.977712      53.57688       61.711344      1              198304.38      1.2103587      12447.023      22249.903     -2675.1751      425.63828      311.25711      24704.509     -19721.671      5294.0951      26.8         
     27000   298.90301      38033.271      18763.002      56796.273     -160.70998      1184.3035     -1456.4119     -210.0215       0.0053854723   0.0054        -0.0040649112   0.00095095586  0.0053854723  -0.0040731954   0.00095050399  20.018336      9.8244694      12.209065      2.8011232     -13.571484      3.6031364      59.980098      53.630302      61.715621      1              198523.77      1.2090212      12627.898      22391.749     -2639.4235      424.62937      222.82392      24721.842     -19716.248      5228.418       27           
     27200   299.498        37878.887      18800.352      56679.238     -227.83619      188.97865     -2116.6315      1244.1443      0.0054252566   0.00544       -0.0036313517   0.0001492994   0.0054252566  -0.0036379611   0.00014928825  28.814341      2.0306632      15.537563      1.9261646     -9.7018742      3.7207393      59.982484      53.653649      61.666193      1              198459.02      1.2094156      12534.778      22217.323     -2720.5278      426.01152      406.51325      24730.694     -19715.905      5421.3025      27.2         
     27400   296.70598      37719.552      18625.089      56344.64      -432.7084       242.85311     -1399.2583     -141.72001      0.0054650394   0.00548       -0.0040643719  -0.0021992276   0.0054650394  -0.0040726539  -0.0022016495   16.142482      4.1334271      18.710842      6.1841934     -18.911804      6.1335361      59.984871      53.630331      61.52139       1              197914.83      1.212741       12560.816      22120.255     -2759.8784      412.41544      355.26363      24745.931     -19715.251      5385.9434      27.4         
     27600   297.79701      38051.006      18693.576      56744.582     -426.73535     -544.30791      977.91934     -1713.8175      0.0055048206   0.00552       -0.0038568891  -0.004284649    0.0055048206  -0.0038643461  -0.0042938544  -6.9547288     -7.3829303     -17.195238     -2.1751161     -15.385303      6.4524903      59.987257      53.641504      61.392809      1              197550.19      1.2149795      12707.504      22195.728     -2553.6284      416.61759      329.97955      24676.948     -19722.142      5284.7857      27.6         
[...]
    744000   300.91065      38421.069      18889.028      57310.097     -972.3835      -1654.9307     -140.77025     -1121.4495      0.13871792     0.1488        -0.061339497   -0.048399819    0.13871792    -0.063301416   -0.049610311    145.03567      9.382691       13.316301      1.2372375      8.7417761      2.3749102      68.535047      50.546112      58.672801      1              203253.15      1.1808891      12661.847      22385.578     -2619.9366      415.80355      530.32579      24760.653     -19713.202      5577.7772      744          
    744200   299.30533      38196.672      18788.257      56984.929     -66.031634     -1474.2786      950.50248      325.68125      0.13875274     0.14884       -0.062674669   -0.047776384    0.13875274    -0.064724852   -0.048955381    118.49065     -22.788277      8.5322718      3.2663618      7.1706724     -4.557278       68.537434      50.474214      58.71124       1              203104.08      1.1817559      12581.659      22372.502     -2865.9564      400.62575      698.80208      24723.167     -19714.128      5707.8408      744.2        
    744400   301.71191      38147.079      18939.325      57086.404     -255.60614     -725.44903     -798.03061      756.66123      0.13878755     0.14888       -0.062724559   -0.048001792    0.13878755    -0.064778079   -0.049192127    145.23391      5.1020118      9.1537333      12.666638     -17.471975      3.7546153      68.53982       50.471527      58.697342      1              203052.27      1.1820574      12634.965      22267.492     -2936.221       406.10331      742.04423      24747.125     -19714.429      5774.7398      744.4        
    744600   301.01246      38482.065      18895.419      57377.484     -1103.7933     -1742.5267     -814.91775     -753.93541      0.13882237     0.14892       -0.062427343   -0.049330495    0.13882237    -0.064461023   -0.0505888      127.87453     -23.004819      17.498032      15.478256     -4.048788      -4.0959154      68.542206      50.487532      58.615418      1              202840.23      1.1832931      12629.352      22376.823     -2634.7823      416.00603      644.77032      24767.324     -19717.427      5694.6671      744.6        
    744800   301.74537      38177.11       18941.425      57118.535     -595.44445     -2146.7165      580.08106     -219.69792      0.13885719     0.14896       -0.061130193   -0.051212827    0.13885719    -0.06307846    -0.05257077     156.30354      9.4285716      4.6639775      4.2601232     -8.4877419     -20.063973      68.544592      50.557383      58.499359      1              202725.74      1.1839614      12623.985      22479.869     -2931.8928      400.36033      556.54505      24763.348     -19715.105      5604.7882      744.8        
    745000   298.51716      38127.687      18738.782      56866.469     -355.63546     -2186.5447      283.25885      836.3795       0.138892       0.149         -0.059472182   -0.053174374    0.138892      -0.061314052   -0.054640336    128.15999     -9.2570613     -12.853703      22.412489     -11.19687      -12.629818      68.546979      50.646665      58.378416      1              202670.94      1.1842815      12458.768      22372.44      -2808.6992      404.42561      667.758        24750.706     -19717.711      5700.7529      745          
    745200   302.77357      38205.166      19005.968      57211.134     -981.99946     -1806.8624      34.677791     -1173.8138      0.13892681     0.14904       -0.057550057   -0.053961714    0.13892681    -0.059272472   -0.055472239    137.62         2.4101276     -20.801266      13.637817     -7.063293      -1.9016179      68.549365      50.75017       58.329871      1              202923.32      1.1828086      12644.3        22264.411     -2741.7875      409.13566      642.05998      24701.119     -19714.071      5629.1076      745.2        
    745400   300.29243      38242.524      18850.221      57092.744     -259.67085     -1272.9495      59.699551      434.23743      0.13896162     0.14908       -0.056492961   -0.054132357    0.13896162    -0.058151453   -0.055652632    131.80822      22.326276     -16.446439      23.070793     -8.1394992      8.5139645      68.551751      50.807094      58.31935       1              203121.35      1.1816554      12741.964      22340.797     -2891.6801      391.689        609.15553      24766.807     -19716.209      5659.7539      745.4        
    745600   298.99636      38358.326      18768.863      57127.189     -595.9553      -1380.7464     -540.42374      133.30425      0.13899643     0.14912       -0.057770533   -0.053284605    0.13899643    -0.059506438   -0.054756764    143.09161      33.579191      3.274978       13.511944     -14.561715     -9.9482709      68.554138      50.738298      58.37162       1              203035.19      1.1821569      12693.233      22296.373     -2675.8494      409.98079      679.81898      24673.508     -19718.738      5634.5889      745.6        
    745800   297.83054      38152.867      18695.681      56848.547     -761.43968     -1653.7524     -365.68675     -264.87989      0.13903124     0.14916       -0.060976255   -0.051542735    0.13903124    -0.062914513   -0.052918546    112.57498      6.179106      -6.4879074      19.13286      -11.387289      7.2121385      68.556524      50.565672      58.479018      1              202723.76      1.1839729      12588.039      22385.593     -2770.7774      396.24482      583.27418      24689.812     -19719.319      5553.7672      745.8        
    746000   299.32717      38132.958      18789.628      56922.586     -278.43084     -1394.3909      72.128747      486.96963      0.13906605     0.1492        -0.063926276   -0.050409273    0.13906605    -0.066061041   -0.051724201    142.68697     -15.458358      5.008127      -4.0086053     -12.034594      1.2209265      68.55891       50.406816      58.548904      1              202335.43      1.1862452      12566.651      22381.675     -2802.2424      397.44956      616.4227       24690.108     -19717.106      5589.4252      746          
    746200   302.57309      38103.574      18993.384      57096.959     -1281.2453     -2582.4178     -670.3983      -590.91978      0.13910085     0.14924       -0.064841233   -0.04894339     0.13910085    -0.067038959   -0.050181691    137.42716     -19.523257     -6.9057569      13.056486     -10.46219       0.55742622     68.561297      50.357546      58.639286      1              202456.75      1.1855344      12581.964      22322.822     -2704.4352      408.46774      522.98681      24685.825     -19714.057      5494.7551      746.2        
    746400   299.35165      38098.157      18791.165      56889.322     -466.72908     -1180.9498     -116.15122     -103.08624      0.13913566     0.14928       -0.064970028   -0.047223115    0.13913566    -0.067176695   -0.048374521    130.63682     -7.8155769      6.5516206      10.486703     -11.57909      -3.0808405      68.563683      50.350611      58.745353      1              202802.08      1.1835157      12732.423      22319.184     -2934.2332      390.309        624.75387      24683.425     -19717.704      5590.4741      746.4        
    746600   297.05468      38102.791      18646.977      56749.768     -310.35905     -1846.7968      345.46178      570.25787      0.13917046     0.14932       -0.064016278   -0.046497071    0.13917046    -0.066157194   -0.047612782    136.98278     -17.475964      7.5206623     -3.5190415     -8.2387178     -2.347996       68.566069      50.401969      58.790119      1              203170.71      1.1813683      12603.471      22262.173     -2848.8161      415.42239      736.1425       24652.662     -19718.263      5670.5414      746.6        
    746800   298.20067      38352.898      18718.915      57071.812     -526.06375     -1454.4054     -92.599283     -31.186575      0.13920527     0.14936       -0.062759361   -0.046899063    0.13920527    -0.064815212   -0.048034466    121.17558      5.5509456      4.0149477      4.105406      -17.597097     -9.4513253      68.568456      50.469653      58.765333      1              203364.85      1.1802405      12756.086      22332.064     -2838.5464      395.47217      715.53777      24709.744     -19717.46       5707.822       746.8        
    747000   301.89321      38298.455      18950.706      57249.161     -28.777103     -607.84683     -430.36917      951.88469      0.13924007     0.1494        -0.061378371   -0.047634705    0.13924007    -0.063342832   -0.048806605    135.01156     -23.069457      10.704666      19.266841     -29.454631     -3.2392954      68.570842      50.544018      58.719975      1              203514.39      1.1793733      12531.267      22386.909     -2772.1644      429.34469      724.90666      24717.594     -19719.402      5723.0993      747          
    747200   297.93035      38272.223      18701.946      56974.168     -603.23701     -1685.8665     -661.64629      537.80178      0.13927487     0.14944       -0.059885739   -0.048896049    0.13927487    -0.061753857   -0.050131915    144.86498      6.5255655      6.2925636      0.26965755    -7.697013       1.4333777      68.573228      50.624395      58.642205      1              203575.14      1.1790214      12618.618      22298.304     -2691.2687      401.68437      641.1281       24723.34      -19719.583      5644.885       747.2        
    747400   299.0622       38228.177      18772.995      57001.173     -833.89325     -1518.4921     -487.28206     -495.90556      0.13930967     0.14948       -0.059147289   -0.050050307    0.13930967    -0.060968675   -0.051346251    135.00392      4.9247174      7.051893       4.4792686     -14.432156     -10.005022      68.575615      50.66416       58.571037      1              203494.87      1.1794864      12455.453      22350.191     -2711.9779      402.05177      692.3948       24758.129     -19718.065      5732.4591      747.4        
    747600   300.73195      38380.808      18877.81       57258.618     -606.0356      -1092.8803     -1028.3326      303.10605      0.13934446     0.14952       -0.05847449    -0.051227657    0.13934446    -0.060253837   -0.052586401    136.66776     -3.7029257     -1.8288847      18.995748     -15.108666      5.002577       68.578001      50.70039       58.498445      1              203395.08      1.1800651      12701.097      22208.123     -2700.5287      408.57115      740.18844      24741.612     -19718.255      5763.5451      747.6        
    747800   299.58031      38208.058      18805.519      57013.577      274.64323     -787.81285      906.46947      705.27308      0.13937926     0.14956       -0.05844849    -0.051484774    0.13937926    -0.060226222   -0.052857437    115.32767     -8.856541      -19.95117       6.419469      -14.270914      6.5975091      68.580387      50.70179       58.482592      1              203352.65      1.1803113      12514.882      22162.299     -2771.1502      406.77646      854.5728       24760.915     -19720.236      5895.2511      747.8        
    748000   300.52561      38291.657      18864.858      57156.515     -150.79029     -549.54721     -135.41314      232.58949      0.13941406     0.1496        -0.057748502   -0.050900988    0.13941406    -0.059483057   -0.052242153    141.83288      20.461822      3.4521985      22.061056     -5.2261928     -11.794254      68.582774      50.739484      58.518586      1              203636.17      1.178668       12765.174      22280.588     -2924.1282      402.80261      754.05413      24727.462     -19714.295      5767.2208      748          
    748200   300.20677      38400.091      18844.843      57244.934      118.67291     -619.4249       1106.8321     -131.38851      0.13944885     0.14964       -0.058942012   -0.051118775    0.13944885    -0.060750517   -0.052471646    130.93535      6.4638052      9.136522       11.524607     -4.8548766     -2.2321336      68.58516       50.675214      58.505158      1              203338.64      1.1803927      12648.972      22301.634     -2854.0838      400.57213      826.85441      24786.979     -19710.836      5902.9972      748.2        
    748400   297.99348      38301.202      18705.908      57007.11      -512.87857     -1772.4811      145.21967      88.62569       0.13948364     0.14968       -0.059982808   -0.051620948    0.13948364    -0.061857115   -0.053001012    154.28761      5.0884174      3.4881585      0.090762886   -7.7584456      1.0893459      68.587546      50.619168      58.474196      1              203013.32      1.1822842      12729.464      22253.801     -2796.5238      407.7344       685.25745      24735.088     -19713.62       5706.7257      748.4        
    748600   300.43843      38256.712      18859.385      57116.097     -445.43269     -1874.8905      514.13667      24.455777      0.13951843     0.14972       -0.06180022    -0.050680954    0.13951843    -0.063792367   -0.052010345    104.80922      9.6744788     -21.338557      18.552903     -4.0485425     -5.816054       68.589933      50.521302      58.532153      1              202828.7       1.1833603      12630.356      22320.149     -2701.6609      426.69712      565.45641      24726.689     -19710.974      5581.171       748.6        
    748800   305.43466      38226.267      19173.013      57399.279      12.50914      -145.49436      201.36693     -18.345147      0.13955322     0.14976       -0.06399077    -0.04933601     0.13955322    -0.066129941   -0.050594602    146.04791     -5.7561405      4.0678757      20.313667     -5.4378704     -9.9060802      68.592319      50.403343      58.615078      1              202648.86      1.1844105      12644.952      22287.337     -2789.4156      423.63686      672.07216      24703.162     -19715.478      5659.7566      748.8        
    749000   299.09924      38265.911      18775.32       57041.231     -104.76755     -1893.0382      612.46471      966.27079      0.13958801     0.1498        -0.064931496   -0.047988069    0.13958801    -0.067135486   -0.049177712    119.78371     -21.492044     -11.802131      24.224251     -5.0784462      7.6350814      68.594705      50.352685      58.698188      1              202739.29      1.1838822      12635.055      22288.479     -2819.9504      409.34342      744.1906       24725.062     -19716.269      5752.9834      749          
    749200   298.79183      38270.579      18756.023      57026.602     -625.83879     -1343.2741      359.80675     -894.04905      0.1396228      0.14984       -0.064386295   -0.046681171    0.1396228     -0.066552596   -0.047805878    148.5825      -7.3043911      19.766674      20.34943      -4.8471442     -2.0023563      68.597091      50.382044      58.778768      1              203143.05      1.1815292      12611.981      22414.415     -2796.0397      425.52891      653.7961       24678.233     -19717.336      5614.6937      749.2        
    749400   304.97368      38203.858      19144.076      57347.934     -516.52311     -2152.6528      95.369584      507.7139       0.13965759     0.14988       -0.063029057   -0.046742166    0.13965759    -0.065103008   -0.047869862    170.68633     -15.425324      1.5682913      2.5035025     -19.729752     -4.1569014      68.599478      50.45513       58.775007      1              203431.79      1.1798522      12573.211      22409.043     -2817.4636      409.68674      668.60961      24678.296     -19717.524      5629.381       749.4        
    749600   298.55622      38297.351      18741.233      57038.584     -633.91967     -2133.2897     -224.0561       455.5868       0.13969237     0.14992       -0.060969554   -0.048028991    0.13969237    -0.062907377   -0.049220697    134.74892     -5.9697362      20.944355     -0.786066      -0.52988949    -10.812954      68.601864      50.566033      58.695665      1              203610.81      1.1788148      12708.166      22203.001     -2716.8295      395.11156      719.89014      24703.711     -19715.699      5707.9022      749.6        
    749800   298.82911      38282.928      18758.363      57041.291     -1066.6719     -1601.5234     -1187.7969     -410.6954       0.13972716     0.14996       -0.059495112   -0.050148128    0.13972716    -0.061338433   -0.05144923     154.95326      13.515854      11.290368      10.188669     -21.652489     -14.075184      68.60425       50.64543       58.565005      1              203483.63      1.1795516      12837.163      22255.12      -2824.5156      410.14869      590.35249      24733.052     -19718.392      5605.0115      749.8        
    750000   303.63006      38274.54       19059.733      57334.272     -83.658127     -650.50382     -287.94093      687.47037      0.13976194     0.15          -0.059928657   -0.052602638    0.13976194    -0.061799509   -0.054036673    132.80563      23.337754     -5.7780497      6.9095631     -3.9017284      0.43627711     68.606637      50.622084      58.413668      1              202871.31      1.1831118      12867.294      22331.062     -2985.8247      399.07528      628.56129      24750.347     -19715.975      5662.9333      750          
Loop time of 12235.3 on 16 procs for 750000 steps with 21060 atoms

Performance: 5.296 ns/day, 4.532 hours/ns, 61.298 timesteps/s, 1.291 Matom-step/s
99.0% CPU use with 16 MPI tasks x no OpenMP threads

MPI task timing breakdown:
Section |  min time  |  avg time  |  max time  |%varavg| %total
---------------------------------------------------------------
Pair    | 7496       | 7700.9     | 7939.5     | 165.3 | 62.94
Bond    | 1741.6     | 1777.4     | 1821.5     |  53.5 | 14.53
Kspace  | 1136.6     | 1407.3     | 1647.6     | 441.6 | 11.50
Neigh   | 733.84     | 733.99     | 734.17     |   0.4 |  6.00
Comm    | 181.26     | 182.46     | 183.81     |   5.4 |  1.49
Output  | 49.354     | 49.355     | 49.364     |   0.0 |  0.40
Modify  | 323.12     | 348.46     | 361.01     |  67.3 |  2.85
Other   |            | 35.5       |            |       |  0.29

Nlocal:        1316.25 ave        1340 max        1267 min
Histogram: 1 1 0 0 1 2 3 2 2 4
Nghost:        13343.4 ave       13413 max       13286 min
Histogram: 4 0 3 1 1 1 2 1 0 3
Neighs:         784886 ave      819807 max      738276 min
Histogram: 1 0 0 2 3 2 4 2 1 1

Total # of neighbors = 12558171
Ave neighs/atom = 596.30442
Ave special neighs/atom = 5.8019943
Neighbor list builds = 36529
Dangerous builds = 0

#-------------------Wrap up-------------------
write_restart  ${myid}.restart
write_restart  tensile_1_EPON_862_pxld_86.8_replicate_4_FF_PCFF_temp_300.restart
System init for write_restart ...
PPPM initialization ...
  using 12-bit tables for long-range coulomb (../kspace.cpp:342)
  G vector (1/distance) = 0.17940427
  grid = 16 15 15
  stencil order = 5
  estimated absolute RMS force accuracy = 0.023622287
  estimated relative force accuracy = 7.1137815e-05
  using double precision KISS FFT
  3d grid and FFT values/proc = 1690 256
Generated 66 of 66 mixed pair_coeff terms from sixthpower/sixthpower mixing rule
write_data     ${myid}.data
write_data     tensile_1_EPON_862_pxld_86.8_replicate_4_FF_PCFF_temp_300.data
System init for write_data ...
PPPM initialization ...
  using 12-bit tables for long-range coulomb (../kspace.cpp:342)
  G vector (1/distance) = 0.17940427
  grid = 16 15 15
  stencil order = 5
  estimated absolute RMS force accuracy = 0.023622287
  estimated relative force accuracy = 7.1137815e-05
  using double precision KISS FFT
  3d grid and FFT values/proc = 1690 256
Generated 66 of 66 mixed pair_coeff terms from sixthpower/sixthpower mixing rule
Total wall time: 3:23:56
