thermo_style   custom step temp pe ke etotal press pxx pyy pzz v_etrue v_eengx v_eengy v_eengz v_etruex v_etruey v_etruez                f_sxx_ave f_syy_ave f_szz_ave f_sxy_ave f_sxz_ave f_syz_ave lx ly lz v_dir vol density ebond eangle edihed                eimp evdwl ecoul elong epair v_Time

restart        ${nsteps} rst1.a.${myid} rst2.a.${myid}
restart        200 rst1.a.${myid} rst2.a.${myid}
restart        200 rst1.a.tensile_1_EPON_862_pxld_86.8_replicate_4_FF_PCFF_temp_5 rst2.a.${myid}
restart        200 rst1.a.tensile_1_EPON_862_pxld_86.8_replicate_4_FF_PCFF_temp_5 rst2.a.tensile_1_EPON_862_pxld_86.8_replicate_4_FF_PCFF_temp_5
dump           6 all atom 10000 dump.${myid} #every picosecond
dump           6 all atom 10000 dump.tensile_1_EPON_862_pxld_86.8_replicate_4_FF_PCFF_temp_5 
dump_modify    6 scale no sort id

#-------------------Run-------------------
run            ${steps}
run            750000

CITE-CITE-CITE-CITE-CITE-CITE-CITE-CITE-CITE-CITE-CITE-CITE-CITE

Your simulation uses code contributions which should be cited:

- Type Label Framework: https://doi.org/10.1021/acs.jpcb.3c08419

@Article{Gissinger24,
 author = {Jacob R. Gissinger, Ilia Nikiforov, Yaser Afshar, Brendon Waters, Moon-ki Choi, Daniel S. Karls, Alexander Stukowski, Wonpil Im, Hendrik Heinz, Axel Kohlmeyer, and Ellad B. Tadmor},
 title = {Type Label Framework for Bonded Force Fields in LAMMPS},
 journal = {J. Phys. Chem. B},
 year =    2024,
 volume =  128,
 number =  13,
 pages =   {3282–-3297}
}

CITE-CITE-CITE-CITE-CITE-CITE-CITE-CITE-CITE-CITE-CITE-CITE-CITE

PPPM initialization ...
  using 12-bit tables for long-range coulomb (../kspace.cpp:342)
  G vector (1/distance) = 0.18113118
  grid = 15 15 15
  stencil order = 5
  estimated absolute RMS force accuracy = 0.022420242
  estimated relative force accuracy = 6.7517893e-05
  using double precision KISS FFT
  3d grid and FFT values/proc = 1521 256
Generated 66 of 66 mixed pair_coeff terms from sixthpower/sixthpower mixing rule
Neighbor list info ...
  update: every = 1 steps, delay = 0 steps, check = yes
  max neighbors/atom: 5000, page size: 100000
  master list distance cutoff = 14
  ghost atom cutoff = 14
  binsize = 7, bins = 9 8 9
  1 neighbor lists, perpetual/occasional/extra = 1 0 0
  (1) pair lj/class2/coul/long, perpetual
      attributes: half, newton on
      pair build: half/bin/newton
      stencil: half/bin/3d
      bin: standard
WARNING: Inconsistent image flags (../domain.cpp:1051)
Per MPI rank memory allocation (min/avg/max) = 19.48 | 19.63 | 19.87 Mbytes
   Step          Temp          PotEng         KinEng         TotEng         Press           Pxx            Pyy            Pzz          v_etrue        v_eengx        v_eengy        v_eengz        v_etruex       v_etruey       v_etruez      f_sxx_ave      f_syy_ave      f_szz_ave      f_sxy_ave      f_sxz_ave      f_syz_ave          Lx             Ly             Lz           v_dir          Volume        Density         E_bond        E_angle        E_dihed        E_impro         E_vdwl         E_coul         E_long         E_pair         v_Time    
         0   5.0179553      18575.046      314.9915       18890.037     -25.965196      91.752748     -61.9423       -107.70603      0             -2.4271398e-16 -1.3480787e-16  2.3297581e-16 -2.220446e-16  -1.110223e-16   2.220446e-16   0              0              0              0              0              0              58.549798      52.707809      60.997126      1              188239.06      1.2750778      5841.4786      15004.347     -5565.9483     -2.8001065     -1176.2974      24329.893     -19855.627      3297.9684      0            
       200   5.0120182      18571.537      314.61881      18886.156      0.33567252     98.195469     -70.217313     -26.971138      3.99992e-05    4e-05         -0.00010439494  0.00013146497  3.99992e-05   -0.00010440039  0.00013145633 -0.099078194    0.28567381    -0.86240354     10.396502     -11.923404      8.081566       58.55214       52.702307      61.005145      1              188251.68      1.2749923      5836.7806      15007.431     -5567.2404     -1.7927775     -1175.6367      24327.871     -19855.875      3296.3588      0.2          
       400   4.951214       18575.713      310.80196      18886.515      111.35065      40.542611      259.12124      34.388093      7.99968e-05    8e-05         -0.00054965923  0.00027690612  7.99968e-05   -0.00054981034  0.00027686779  2.6525111     -0.4444139      0.47659707     10.178316     -11.750006      8.4082343      58.554482      52.678838      61.014016      1              188202.74      1.2753238      5837.6632      15015.202     -5573.0359     -2.3415074     -1176.037       24330.14      -19855.878      3298.2252      0.4          
       600   4.9973966      18576.348      313.70097      18890.049     -37.781422     -22.746644     -98.269765      7.672145       0.0001199928   0.00012       -0.00035939064  9.8714419e-05  0.0001199928  -0.00035945524  9.8709547e-05 -0.9950195     -0.1225067     -0.080916087    11.280962     -12.558661      8.8502065      58.556824      52.688867      61.003147      1              188212.56      1.2752573      5843.988       15016.989     -5568.3652     -2.6303789     -1180.1486      24322.29      -19855.774      3286.3673      0.6          
       800   4.9898136      18574.532      313.22496      18887.757     -19.688558     -2.2810995      7.2774815     -64.062056      0.0001599872   0.00016        0.00015316491  0.00010466078  0.0001599872   0.00015315318  0.00010465531 -0.3459636     -0.13826508    -0.1414359      11.695561     -10.880689      7.0314262      58.559166      52.715882      61.00351       1              188317.72      1.2745452      5839.4923      15014.36      -5580.9674     -3.0644507     -1171.6168      24331.891     -19855.562      3304.7116      0.8          
      1000   5.0123885      18575.254      314.64206      18889.896      59.02721      -35.136059      117.37204      94.845645      0.00019998     0.0002        -0.00055887688  0.0001248497   0.00019998    -0.00055903311  0.00012484191 -1.0439662      0.072867371   -0.25946623     9.9834359     -12.747497      5.6729278      58.561508      52.678352      61.004741      1              188194.97      1.2753765      5849.6549      15005.489     -5578.5933     -1.7572757     -1165.955       24321.997     -19855.581      3300.4605      1            
      1200   5.0080394      18577.986      314.36905      18892.355      57.013373     -16.985277     -55.6376        243.663        0.0002399712   0.00024       -0.00032015814  0.00014426082  0.0002399712  -0.0003202094   0.00014425041 -0.91958876    -0.45224718     0.14945759     11.485058     -12.037297      8.1685833      58.56385       52.690934      61.005925      1              188251.11      1.2749962      5847.8728      15009.447     -5565.8835     -1.5444627     -1184.2244      24328.47      -19856.152      3288.0942      1.2          
      1400   4.988069       18573.549      313.11545      18886.664      2.2285044      38.526794     -27.470276     -4.3710045      0.00027996081  0.00028       -0.00036017116  0.00019562032  0.00027996081 -0.00036023604  0.00019560119  2.5324939     -0.049630415   -0.27496621     9.8051079     -12.413782      8.2035713      58.566192      52.688825      61.009058      1              188260.77      1.2749308      5852.2786      14999.203     -5572.4879     -1.7362648     -1171.6999      24323.613     -19855.622      3296.2917      1.4          
      1600   5.0132803      18576.705      314.69804      18891.403     -164.98626     -158.68201     -73.460133     -262.81663      0.00031994881  0.00032       -0.00062221188  0.00036018161  0.00031994881 -0.00062240554  0.00036011676  1.0396364     -0.041617004    0.23251099     9.3233261     -12.369146      8.8675649      58.568534      52.675014      61.019096      1              188249.91      1.2750043      5838.6441      15000.498     -5556.3579     -2.4517896     -1170.3756      24322.611     -19855.862      3296.3729      1.6          
      1800   5.0157623      18577.177      314.85384      18892.031     -43.671406     -86.522962     -88.375949      43.884694      0.00035993522  0.00036       -0.00033662676  0.00027231373  0.00035993522 -0.00033668343  0.00027227666  0.68341305     0.02204488    -0.48323474     10.636523     -11.645225      7.391825       58.570876      52.690066      61.013736      1              188294.69      1.274701       5866.7479      15011.398     -5580.7574     -3.1299207     -1185.6103      24324.052     -19855.524      3282.9183      1.8          
      2000   4.977746       18573.999      312.46745      18886.466     -47.439841     -115.22501     -14.025121     -13.069389      0.00039992002  0.0004        -0.00033536377  0.00020215413  0.00039992002 -0.00033542001  0.0002021337   0.28976543     0.31634488     0.30196355     10.259538     -10.442034      10.290345      58.573218      52.690133      61.009456      1              188289.25      1.2747379      5846.7056      15009.216     -5575.9148     -2.263114      -1167.914       24319.701     -19855.532      3296.2552      2            
      2200   5.0198411      18577.511      315.10988      18892.621     -14.939646     -87.823145      38.20152       4.8026876      0.00043990323  0.00044       -0.00083331452  0.00032510216  0.00043990323 -0.00083366192  0.00032504933  1.1538797     -0.62498918    -0.21588762     10.437886     -11.117792      7.1016573      58.57556       52.663887      61.016956      1              188226.12      1.2751654      5833.8471      15004.333     -5565.5089     -1.9302368     -1161.7669      24324.546     -19856.008      3306.7705      2.2          
      2400   5.00601        18576.59       314.24166      18890.832      87.602462      75.56348       53.174844      134.06906      0.00047988484  0.00048       -0.00078154156  0.00054832933  0.00047988484 -0.00078184712  0.00054817905  1.7460477     -0.4356361     -0.038929973    11.867932     -12.442455      7.9839676      58.577902      52.666616      61.030572      1              188285.41      1.2747639      5841.7672      15005.941     -5575.9633     -2.9189991     -1161.5986      24325.381     -19856.018      3307.7642      2.4          
      2600   4.9791573      18575.35       312.55604      18887.906     -97.789881     -70.620717     -56.236408     -166.51252      0.00051986485  0.00052       -0.00075521795  0.00035474373  0.00051986485 -0.00075550327  0.00035468082  2.8908111      0.15005121    -0.11723834     9.3462864     -11.058857      10.05372       58.580244      52.668003      61.018764      1              188261.47      1.274926       5841.4438      15016.605     -5562.8741     -1.7425515     -1187.0204      24324.635     -19855.696      3281.9181      2.6          
      2800   5.0073621      18578.009      314.32653      18892.336     -50.125673     -122.0605      -42.761777      14.445261      0.00055984326  0.00056       -0.00039049165  0.00040952732  0.00055984326 -0.00039056791  0.00040944349  4.9628893     -0.21542877    -0.20038122     7.639114      -12.628247      8.3241814      58.582586      52.687227      61.022106      1              188348.02      1.2743401      5840.089       15010.706     -5575.9279     -2.4877285     -1169.919       24331.517     -19855.969      3305.6299      2.8          
      3000   5.0408261      18575.365      316.42717      18891.792     -0.020932127    59.01893       23.107887     -82.189614      0.00059982007  0.0006        -0.00068229467 -1.4223275e-05  0.00059982007 -0.00068252754 -1.4223376e-05  2.1671601     -0.12573684    -0.29047752     9.8990823     -9.4229059      7.542652       58.584928      52.671847      60.996258      1              188220.81      1.2752014      5852.3386      15024.763     -5591.1911     -1.1779746     -1177.9783      24324.169     -19855.558      3290.6323      3            
      3200   4.9847476      18575.519      312.90696      18888.426      124.85941      218.36454      119.76953      36.44416       0.00063979529  0.00064       -0.0007158393   4.3880784e-05  0.00063979529 -0.00071609563  4.3879821e-05  1.2794256     -0.062015394    0.62948117     6.9907858     -11.486614      10.478451      58.58727       52.670079      60.999802      1              188232.95      1.2751191      5850.2572      15015.436     -5581.5622     -3.1408903     -1172.4676      24322.941     -19855.945      3294.5283      3.2          
      3400   5.0281699      18577.805      315.6327       18893.438      56.632643      33.277788      45.367792      91.252348      0.0006797689   0.00068       -0.00032245131 -0.00029727274  0.0006797689  -0.00032250331 -0.00029731693  4.1492808     -0.43823951    -1.195498       8.976605      -12.886577      9.0194177      58.589612      52.690814      60.978993      1              188250.34      1.2750014      5836.5873      15020.67      -5588.2769     -2.4791821     -1156.1958      24323.668     -19856.168      3311.3036      3.4          
      3600   4.9945044      18577.763      313.51942      18891.283     -136.26071      1.9195296     -198.85812     -211.84354      0.00071974092  0.00072       -0.0004548387  -3.0662582e-06  0.00071974092 -0.00045494217 -3.0662629e-06  1.7932493      1.0300656      0.62277613     10.338892     -11.975982      7.382646       58.591954      52.683836      60.996938      1              188288.33      1.2747441      5843.4734      15004.371     -5560.1302     -1.9199385     -1181.8673      24329.267     -19855.431      3291.9688      3.6          
      3800   5.0212855      18572.632      315.20055      18887.833      210.00164      215.57441      319.97956      94.450937      0.00075971135  0.00076       -0.00025655269 -0.00019850433  0.00075971135 -0.0002565856  -0.00019852403  0.8753957     -0.95344893    -0.47122691     10.733471     -11.816663      7.2106905      58.594296      52.694287      60.985017      1              188296.4       1.2746895      5855.0981      15009.525     -5595.8571     -2.9007499     -1164.3219      24326.375     -19855.286      3306.7669      3.8          
      4000   5.0064099      18575.641      314.26676      18889.908     -137.17791     -151.99848     -175.01642     -84.51883       0.00079968017  0.0008        -0.00042502838 -0.00016169116  0.00079968017 -0.00042511873 -0.00016170423  3.0591763      0.30764313     0.16515231     10.897371     -12.182191      7.7423119      58.596638      52.685407      60.987263      1              188279.13      1.2748064      5832.1145      14996.816     -5561.2878     -1.4610357     -1163.5949      24328.903     -19855.848      3309.4594      4            
      4200   5.0136969      18577.326      314.72419      18892.05      -62.059541     -121.29712      40.731137     -105.61264      0.0008396474   0.00084       -0.00088091214  0.00016099269  0.0008396474  -0.00088130037  0.00016097973  4.939669      -0.038182463   -0.15506084     8.0282843     -12.242301      8.3807774      58.59898       52.661378      61.006946      1              188261.52      1.2749257      5847.2485      15014.284     -5573.3385     -2.6635693     -1174.4302      24322.341     -19856.115      3291.7955      4.2          
      4400   5.0169174      18573.705      314.92635      18888.631     -2.5015914     -37.099289     -50.820729      80.415244      0.00087961303  0.00088       -0.0007603852   0.00014368288  0.00087961303 -0.00076067444  0.00014367256  3.41912       -0.15062248    -0.12499825     8.9212778     -11.942309      7.5073253      58.601322      52.667731      61.00589       1              188288.5       1.274743       5861.4485      14991.988     -5566.4585     -2.5391262     -1178.1323      24323.532     -19856.134      3289.2662      4.4          
      4600   5.012912       18574.913      314.67492      18889.588     -46.947096     -12.205298     -112.99        -15.645995      0.00091957706  0.00092       -0.00059858684 -0.00021901249  0.00091957706 -0.00059876607 -0.00021903648  3.3236998     -0.39754685     0.15534742     11.995522     -11.01894       9.2884344      58.603664      52.676259      60.983766      1              188258.21      1.274948       5854.4977      14997.35      -5566.9662     -2.0275274     -1170.8172      24318.545     -19855.668      3292.0592      4.6          
      4800   5.0281626      18578.657      315.63224      18894.29       85.705059      126.50421     -6.0496793      136.66064      0.00095953949  0.00096       -0.0010290231   0.00027810242  0.00095953949 -0.0010295529   0.00027806376  0.014333911   -0.51780046    -0.52206934     8.7697516     -10.713916      7.3399086      58.606006      52.653572      61.014089      1              188278.22      1.2748125      5852.8055      15007.977     -5590.3159     -4.6590877     -1160.6503      24329.492     -19855.992      3312.8503      4.8          
      5000   5.0025267      18574.417      314.02301      18888.44      -57.825966     -16.337527     -83.944528     -73.195844      0.00099950033  0.001         -0.00089766118  0.0001421017   0.00099950033 -0.00089806432  0.00014209161  3.5809307      0.28244525     0.20420859     10.832368     -13.318831      7.8764824      58.608348      52.660496      61.005793      1              188284.9       1.2747673      5849.9277      15003.628     -5577.1258     -1.89398       -1172.1279      24327.711     -19855.701      3299.8816      5            
      5200   5.036557       18572.69       316.15918      18888.849     -11.522471     -20.037068      117.67304     -132.20338      0.0010394596   0.00104       -0.00089104341  0.0003248661   0.0010394596  -0.00089144063  0.00032481334  7.1703213      0.37985357    -0.14276893     11.189176     -13.369893      9.1789797      58.61069       52.660844      61.016941      1              188328.08      1.274475       5853.2857      15005.235     -5585.7469     -2.6444424     -1162.2728      24320.226     -19855.393      3302.5609      5.2          
      5400   5.0510051      18577.685      317.06613      18894.751      9.3874649     -48.910269      96.395183     -19.32252       0.0010794172   0.00108       -0.00073218447  5.4292708e-05  0.0010794172  -0.00073245265  5.4291234e-05  4.4738626     -0.84408321     0.07892087     10.865677     -10.740684      8.9193815      58.613032      52.669217      61.000437      1              188314.6       1.2745663      5848.4685      15000.97      -5591.5412     -1.8211885     -1154.1692      24331.677     -19855.9        3321.608       5.4          
      5600   4.9969775      18577.262      313.67466      18890.937     -85.99868      -157.09113     -69.946432     -30.958473      0.0011193733   0.00112        1.5549169e-05 -0.00075194169  0.0011193733   1.5549048e-05 -0.00075222454  6.9681022      0.56549256    -0.35563489     11.364412     -12.017807      7.5128618      58.615374      52.708629      60.951259      1              188311.11      1.2745899      5854.9971      14996.145     -5563.0885     -2.7510486     -1180.7677      24328.495     -19855.767      3291.9601      5.6          
      5800   4.9985243      18575.534      313.77176      18889.306      16.989536     -64.469408      74.824264      40.61375       0.0011593277   0.00116       -0.00011882354 -0.00071342797  0.0011593277  -0.0001188306  -0.00071368258  6.5369122     -0.38419692    -0.098614986    9.4648866     -13.103494      8.7974642      58.617716      52.701546      60.953608      1              188300.58      1.2746611      5851.4648      14999.505     -5562.8211     -3.1003468     -1182.4329      24328.668     -19855.749      3290.4858      5.8          
      6000   5.047811       18573.198      316.86563      18890.063      15.270155      80.208242      32.744525     -67.142302      0.0011992806   0.0012        -0.00041452457 -0.00051968044  0.0011992806  -0.00041461051 -0.00051981552  7.5911369      0.10443674    -0.35871969     10.918544     -10.987988      9.3914152      58.620058      52.685961      60.965427      1              188288.92      1.2747401      5845.0422      15001.922     -5573.1957     -1.3662316     -1171.0973      24327.44      -19855.547      3300.7951      6            
      6200   5.0241413      18578.914      315.37981      18894.293     -24.306473     -82.232553     -3.3150651      12.628199      0.0012392318   0.00124       -0.00048368711  0.00020326771  0.0012392318  -0.00048380412  0.00020324706  5.1569635     -0.18014295     0.24033205     9.1546317     -11.502163      9.3754021      58.6224        52.682315      61.009524      1              188419.6       1.273856       5852.2864      15011.649     -5583.7866     -1.2427805     -1174.3869      24330.222     -19855.827      3300.0079      6.2          
      6400   4.9434033      18578.214      310.31166      18888.526     -180.26113     -262.28061     -161.29547     -117.20732      0.0012791815   0.00128       -0.0009168828  -4.5167469e-06  0.0012791815  -0.00091730339 -4.5167571e-06  5.5889233     -0.2017547     -0.088960587    8.9277948     -10.89109       6.7420936      58.624742      52.659482      60.99685       1              188306.34      1.2746222      5851.9193      15000.829     -5562.7873     -1.9119486     -1182.9247      24329.192     -19856.103      3290.1649      6.4          
      6600   5.0037688      18575.022      314.10097      18889.123     -98.836812     -56.495992     -11.241389     -228.77306      0.0013191296   0.00132       -0.00067860692 -0.00043407888  0.0013191296  -0.00067883727 -0.00043417312  4.4100425     -0.20898536    -0.46856975     9.3582651     -10.633594      7.2578118      58.627084      52.672041      60.970648      1              188277.86      1.274815       5840.3163      15003.567     -5567.959      -4.3484842     -1170.8401      24330.199     -19855.912      3303.4465      6.6          
      6800   5.0388313      18578.429      316.30195      18894.731      118.43355      32.022899      217.63377      105.64399      0.001359076    0.00136       -0.00099436009 -0.00029549471  0.001359076   -0.00099485479 -0.00029553837  4.4307169     -0.34909683     0.17302681     8.0356649     -11.153268      9.1047674      58.629426      52.655399      60.979101      1              188251.98      1.2749902      5851.3691      15009.865     -5582.155      -2.7491678     -1168.0862      24325.952     -19855.767      3302.0988      6.8          
      7000   4.998101       18578.353      313.74519      18892.098      44.061385      131.186       -80.449787      81.447943      0.0013990209   0.0014        -0.00093604852 -0.00024746563  0.0013990209  -0.00093648689 -0.00024749626  4.1754113      0.023094131   -0.065555588    9.548282      -11.516399      8.7113221      58.631768      52.658472      60.982031      1              188279.54      1.2748036      5850.4195      15013.926     -5572.2874     -1.789265      -1178.6451      24321.958     -19855.229      3288.0843      7            
      7200   4.9892983      18574.407      313.19262      18887.599      83.717314      143.67642      50.333496      57.14203       0.0014389642   0.00144       -0.0011356896   3.8085412e-05  0.0014389642  -0.001136335    3.8084687e-05  6.4138812      0.19882719    -0.7378041      9.137449      -11.127946      10.304075      58.63411       52.64795       60.999449      1              188303.2       1.2746434      5836.9944      15004.215     -5575.5421     -1.7725658     -1159.0534      24324.939     -19855.373      3310.5121      7.2          
      7400   5.0022913      18576.851      314.00823      18890.86      -19.420793     -101.22142      10.522226      32.436812      0.0014789059   0.00148       -0.00088487001 -7.5825146e-05  0.0014789059  -0.00088526174 -7.5828021e-05  8.8705798      0.38424098     0.64547371     9.0680616     -13.543402      10.458895      58.636451      52.66117       60.9925        1              188336.55      1.2744177      5840.1705      15008.244     -5575.97       -1.2700071     -1165.153       24326.666     -19855.836      3305.6766      7.4          
      7600   5.0453664      18577.541      316.71217      18894.253     -0.34400022    -82.679604     -13.810444      95.458048      0.001518846    0.00152       -0.0011150064  -6.5338583e-05  0.001518846   -0.0011156285  -6.5340718e-05  7.9047422     -0.72865437     0.18838274     9.0812748     -10.951121      7.292523       58.638793      52.64904       60.99314       1              188302.67      1.274647       5846.9808      15019.572     -5579.1857     -2.6319433     -1183.1262      24332.161     -19856.229      3292.8062      7.6          
      7800   4.9404131      18576.984      310.12395      18887.108     -122.94263     -178.74586     -86.089728     -103.9923       0.0015587845   0.00156       -0.0010001602  -0.00038151832  0.0015587845  -0.0010006607  -0.00038159111  5.6016987     -0.22797778    -0.62013928     9.8004619     -11.800757      9.514102       58.641135      52.655093      60.973854      1              188272.29      1.2748527      5845.6072      14997.697     -5559.9978     -3.2428446     -1175.3486      24327.804     -19855.534      3296.9207      7.8          
      8000   4.9884555      18576.416      313.13971      18889.556     -165.79209     -256.87657     -200.74399     -39.755698      0.0015987214   0.0016        -0.00047493245 -0.0010216283   0.0015987214  -0.00047504527 -0.0010221505   7.1324338      0.25533404     0.25736749     10.55602      -11.543729      8.2703666      58.643477      52.682777      60.934809      1              188258.17      1.2749483      5839.1835      15011.237     -5564.3489     -2.1856061     -1174.7872      24323.012     -19855.695      3292.5297      8            
      8200   5.0054208      18577.364      314.20467      18891.568      35.863534      80.314794      108.06425     -80.788441      0.0016386567   0.00164       -0.0013674902  -2.6823866e-05  0.0016386567  -0.0013684261  -2.6824226e-05  6.5737456     -0.3625475     -0.92937565     10.377406     -10.851556      9.8291131      58.645819      52.635732      60.995489      1              188284.88      1.2747675      5844.5524      15007.636     -5573.1939     -1.5939747     -1169.8513      24325.468     -19855.654      3299.9629      8.2          
      8400   4.9800615      18575.488      312.6128       18888.101     -44.225822     -121.93245      0.4847087     -11.229726      0.0016785904   0.00168       -0.00048446552 -0.00022784245  0.0016785904  -0.00048458291 -0.00022786841  8.6728841     -0.10893378     0.38736948     9.2060784     -13.006076      5.668651       58.648161      52.682274      60.983228      1              188421.01      1.2738465      5845.495       15011.828     -5575.0548     -1.7080689     -1172.6691      24323.286     -19855.689      3294.9281      8.4          
      8600   5.0017523      18578.217      313.97439      18892.192     -81.378941     -136.887       -44.651574     -62.59825       0.0017185225   0.00172       -0.0007420631  -0.00024804235  0.0017185225  -0.00074233857 -0.00024807311  8.3218176      0.2428723     -0.042481504    9.9353421     -11.698136      8.3935291      58.650503      52.668697      60.981996      1              188376.16      1.2741497      5844.9053      15016.819     -5571.4588     -2.9569601     -1183.9329      24330.4       -19855.558      3290.9088      8.6          
      8800   4.9740573      18575.477      312.2359       18887.713     -27.579143     -164.80947      62.901385      19.170658      0.001758453    0.00176       -0.0010899186  -0.00016076268  0.001758453   -0.001090513   -0.0001607756   9.4009419     -0.082676287    0.037279326    9.2473871     -10.989368      7.2813784      58.652845      52.650362      60.987319      1              188334.55      1.2744313      5835.9672      14997.6       -5563.063      -3.5184009     -1163.4436      24327.445     -19855.51       3308.4911      8.8          
      9000   4.9936622      18570.744      313.46655      18884.211     -91.874849     -149.03534      40.930628     -167.51983      0.0017983819   0.0018        -0.00079943631 -0.00089594671  0.0017983819  -0.00079975603 -0.00089634831  5.6665073     -0.74952602    -0.33346226     8.6938225     -13.99416       7.0012657      58.655187      52.665673      60.942475      1              188258.31      1.2749474      5842.781       15009.045     -5568.8139     -3.5519283     -1172.9291      24319.983     -19855.771      3291.2836      9            
      9200   5.0093711      18575.837      314.45265      18890.29      -87.981815     -148.22628      5.8010183     -121.52018      0.0018383093   0.00184       -0.0011513096  -0.00011097065  0.0018383093  -0.0011519729  -0.00011097681  8.0134981      0.34152227    -0.21508681     8.6917578     -12.365035      7.5904904      58.657529      52.647126      60.990357      1              188347.39      1.2743444      5847.6451      15009.083     -5574.1226     -2.199246      -1176.4147      24327.796     -19855.95       3295.4314      9.2          
      9400   5.0342365      18575.032      316.01352      18891.045      54.915974     -107.49689      66.850715      205.3941       0.001878235    0.00188       -0.00099756288 -0.00019751737  0.001878235   -0.00099806078 -0.00019753687  8.6256496     -0.2718115      0.25754642     10.865514     -10.638737      10.575947      58.659871      52.65523       60.985078      1              188367.6       1.2742077      5857.2682      14999.745     -5578.452      -2.5356701     -1169.7725      24324.886     -19856.106      3299.0068      9.4          
      9600   4.9375475      18575.293      309.94407      18885.237     -17.044897     -11.928293     -34.966841     -4.2395575      0.0019181592   0.00192       -0.00075150288 -0.00054836776  0.0019181592  -0.0007517854  -0.00054851817  9.4690819     -0.013571845   -0.27797205     11.183607     -11.274621      7.7321029      58.662213      52.668199      60.963677      1              188355.4       1.2742902      5842.5591      15008.098     -5573.4528     -1.619969      -1168.2471      24323.8       -19855.845      3299.708       9.6          
      9800   5.0228568      18574.724      315.29918      18890.023     -115.44828     -193.10898     -30.068712     -123.16713      0.0019580817   0.00196       -0.00090490631 -0.00051924683  0.0019580817  -0.00090531599 -0.00051938168  11.521496     -0.21927692    -0.56874577     10.643231     -13.250988      7.8146066      58.664555      52.660114      60.965453      1              188339.49      1.2743979      5847.5832      15001.662     -5565.9048     -2.410108      -1176.5086      24326.048     -19855.746      3293.7935      9.8          
     10000   4.9966246      18576.026      313.65251      18889.679      0.77332514    -49.231497      125.33283     -73.781359      0.0019980027   0.002         -0.001463408   -0.00039942197  0.0019980027  -0.0014644798  -0.00039950176  8.2593717      0.081680432    0.67479495     8.7374745     -11.785617      8.7881856      58.666897      52.630676      60.972762      1              188264.29      1.2749069      5842.6696      14997.413     -5565.133      -2.7103024     -1165.5415      24325.432     -19856.103      3303.7871      10           
     10200   4.9502193      18572.774      310.73951      18883.514     -2.7340089     -7.9969584     -51.050407      50.845339      0.002037922    0.00204       -0.0014398657  -0.00044459972  0.002037922   -0.0014409033  -0.00044469858  10.488234      0.25642756    -0.2303864      9.9137788     -12.277783      8.796106       58.669239      52.631917      60.970006      1              188267.73      1.2748836      5853.1431      14997.055     -5578.4291     -2.0712472     -1166.2714      24325.046     -19855.697      3303.0771      10.2         
     10400   4.9782919      18576.164      312.50172      18888.666     -45.076849     -101.77731      32.762261     -66.215501      0.0020778398   0.00208       -0.0013086701   7.0582333e-05  0.0020778398  -0.0013095271   7.0579842e-05  10.205668     -0.79667136    -0.22017256     11.217981     -10.590249      7.5450554      58.671581      52.638832      61.001431      1              188397.03      1.2740086      5837.9367      14995.778     -5564.6319     -2.9289985     -1165.2883      24330.794     -19855.495      3310.011       10.4         
     10600   5.0091914      18577.588      314.44136      18892.029      49.602225     -49.46766       90.284851      107.98948      0.002117756    0.00212       -0.00088070015 -0.00040657725  0.002117756   -0.0008810882  -0.00040665992  12.499739      0.63958688     0.10873457     9.4428866     -12.32748       7.7772013      58.673923      52.66139       60.972325      1              188395.36      1.2740199      5843.5699      14997.869     -5558.3049     -2.1581925     -1178.0806      24330.367     -19855.675      3296.6118      10.6         
     10800   4.9605518      18576.572      311.38812      18887.96       24.596296     -110.08425      91.199722      92.673417      0.0021576706   0.00216       -0.0010905641  -0.00095388916  0.0021576706  -0.0010911592  -0.0009543444   9.4362612     -1.0340058     -0.25662049     9.8705195     -11.045512      8.7187193      58.676265      52.650328      60.938941      1              188260.17      1.2749348      5841.312       15011.546     -5562.2834     -2.6431717     -1178.3328      24322.494     -19855.52       3288.6409      10.8         
     11000   4.9828048      18573.44       312.785        18886.225     -163.70867     -59.400171     -271.8159      -159.90995      0.0021975835   0.0022        -0.00081583751 -0.00067830119  0.0021975835  -0.00081617049 -0.00067853134  9.4467949      0.26773477    -0.075673478    8.8990552     -11.026321      6.4902451      58.678607      52.664808      60.955751      1              188371.41      1.2741819      5839.1409      14994.134     -5556.3978     -2.8431306     -1173.5999      24328.565     -19855.56       3299.4052      11           
     11200   5.0294499      18574.243      315.71305      18889.956      101.03619      62.454387      50.906351      189.74783      0.0022374949   0.00224       -0.00079157364 -0.00077983823  0.0022374949  -0.0007918871  -0.00078014246  10.096438      0.14413491    -0.33296589     10.094226     -11.71973       9.8895723      58.680949      52.666087      60.949558      1              188364.36      1.2742296      5845.0498      15023.219     -5602.4246     -1.9091915     -1156.8112      24322.917     -19855.798      3310.3074      11.2         
     11400   4.9905018      18575.884      313.26816      18889.152     -64.750873     -134.95152      14.271365     -73.572465      0.0022774047   0.00228       -0.0012041196  -0.0003858169   0.0022774047  -0.0012048451  -0.00038589135  9.8644906      0.35496476     0.26334202     9.6506092     -11.827191      7.7381788      58.683291      52.644343      60.973592      1              188368.36      1.2742025      5831.5938      15008.409     -5567.4734     -1.6634002     -1167.0888      24327.862     -19855.756      3305.0178      11.4         
     11600   5.0491616      18575.754      316.95041      18892.704     -206.02754     -209.84422     -230.54822     -177.69019      0.002317313    0.00232       -0.001063786   -0.00043557828  0.002317313   -0.0010643522  -0.00043567317  11.338506     -0.88843317    -0.53463686     10.480896     -11.383247      9.3757158      58.685633      52.651739      60.970556      1              188392.96      1.2740361      5845.349       15005.048     -5562.0237     -2.5091488     -1185.3187      24331.138     -19855.929      3289.8898      11.6         
     11800   5.0058617      18575.557      314.23235      18889.79       126.20113      22.386695      268.1562       88.060489      0.0023572196   0.00236       -0.0013300539  -0.00067263781  0.0023572196  -0.0013309392  -0.00067286414  11.34955      -0.21128176    -0.43402124     10.2327       -12.147183      7.2712545      58.687975      52.637705      60.956097      1              188305.59      1.2746272      5867.718       15007.371     -5599.8843     -3.1240354     -1169.5926      24328.686     -19855.616      3303.4772      11.8         
     12000   4.9793308      18575.58       312.56693      18888.147      15.216933     -232.0516       222.83704      54.865355      0.0023971246   0.0024        -0.00084271454 -0.0006253828   0.0023971246  -0.00084306983 -0.00062557843  12.935942      0.38704584     0.48573285     9.2748776     -12.421441      7.6242753      58.690317      52.663392      60.958979      1              188413.91      1.2738945      5850.4719      15003.282     -5582.007      -2.2555676     -1167.4712      24329.433     -19855.874      3306.0881      12           
     12200   5.0040386      18579.201      314.11791      18893.318      27.60657      -153.95009      122.01612      114.75367      0.002437028    0.00244       -0.0013475761  -0.00019351192  0.002437028   -0.0013484849  -0.00019353065  10.155635     -0.46019984     0.32507902     9.0453385     -12.016856      8.8006038      58.692659      52.636782      60.985322      1              188407.61      1.2739371      5834.6734      15021.391     -5581.4385     -2.6190694     -1159.3498      24322.092     -19855.548      3307.1941      12.2         
     12400   4.9843586      18577.251      312.88254      18890.134     -11.498708     -132.78965      33.660075      64.633451      0.0024769299   0.00248       -0.0012485267  -0.00076061368  0.0024769299  -0.0012493068  -0.00076090309  12.69419       0.27800912    -0.73749369     9.5754917     -11.558477      10.829538      58.695001      52.642002      60.95073       1              188326.93      1.2744828      5850.9429      14994.949     -5571.6274     -2.4238185     -1168.779       24329.872     -19855.683      3305.4105      12.4         
     12600   5.031898       18573.306      315.86673      18889.173      13.571413     -86.642602      81.301177      46.055662      0.0025168301   0.00252       -0.0013887726  -0.00045004937  0.0025168301  -0.0013897378  -0.00045015068  11.191989     -0.3610505      0.049543748    9.9568884     -11.745654      9.2884798      58.697343      52.63461       60.969674      1              188366.53      1.2742149      5842.5079      15010.349     -5582.0875     -3.3021163     -1164.9194      24326.33      -19855.572      3305.8385      12.6         
     12800   5.0420546      18579.041      316.50428      18895.545     -7.562511      -62.987309      66.829157     -26.529381      0.0025567288   0.00256       -0.0013672824  -0.00053804456  0.0025567288  -0.001368218   -0.00053818936  15.715274     -0.044192384   -0.36549154     8.7992309     -11.756105      8.9057378      58.699685      52.635743      60.964306      1              188361.51      1.2742489      5852.1383      15011.304     -5578.212      -1.5108351     -1173.855       24324.624     -19855.448      3295.3213      12.8         
     13000   4.9875663      18575.47       313.0839       18888.554     -207.74517     -257.13241     -244.87945     -121.22366      0.0025966258   0.0026        -0.0014352111  -0.00089822482  0.0025966258  -0.001436242   -0.00089862846  11.990576      0.0044790965  -0.08886878     11.072718     -10.968542      9.4912243      58.702027      52.632162      60.942336      1              188288.33      1.2747441      5827.8408      15010.483     -5538.1683     -2.5042681     -1190.0207      24323.352     -19855.512      3277.8189      13           
     13200   4.9699463      18577.053      311.97784      18889.031      34.055936     -11.896875      222.9031      -108.83842      0.0026365213   0.00264       -0.00090812812 -0.0010671636   0.0026365213  -0.00090854072 -0.0010677335   11.643564     -0.42637855     0.21707302     11.083077     -12.115158      6.720962       58.704369      52.659944      60.932032      1              188363.38      1.2742362      5837.7009      15018.187     -5580.6775     -3.411716      -1166.5584      24327.195     -19855.383      3305.2541      13.2         
     13400   5.0296974      18578.752      315.72858      18894.48      -8.2059411     -1.5584962      20.125014     -43.184341      0.0026764152   0.00268       -0.00092273505 -0.00091933471  0.0026764152  -0.00092316103 -0.00091975755  14.646166      0.073921606   -0.40712494     10.098607     -12.560258      8.2892576      58.706711      52.659174      60.941049      1              188396.02      1.2740155      5838.7761      15000.958     -5559.8117     -1.8252673     -1173.2785      24329.544     -19855.611      3300.6549      13.4         
     13600   4.9907103      18578.07       313.28125      18891.352     -62.259066     -190.8712       0.35862086     3.7353842      0.0027163075   0.00272       -0.0014512339  -0.0011377245   0.0027163075  -0.0014522879  -0.0011383722   12.810662      0.087815362    0.53100813     9.8073299     -10.842644      9.1242895      58.709053      52.631318      60.927728      1              188262.71      1.2749176      5844.9365      15014.61      -5570.0853     -1.6673134     -1177.3314      24323.625     -19856.018      3290.276       13.6         
     13800   4.9918492      18575.939      313.35274      18889.292      58.465948      43.784374     -15.367864      146.98133      0.0027561982   0.00276       -0.0012273898  -0.00085777878  0.0027561982  -0.0012281437  -0.00085814688  14.032507      0.10402241    -0.89918778     8.907221      -13.426959      8.0271146      58.711395      52.643116      60.944803      1              188365.2       1.2742239      5842.8144      15014.197     -5577.8725     -3.3215618     -1174.1055      24330.291     -19856.063      3300.122       13.8         
     14000   5.0415955      18576.611      316.47546      18893.087     -1.4395078     -47.329653      34.996448      8.0146811      0.0027960873   0.0028        -0.0012184931  -0.00065211715  0.0027960873  -0.0012192361  -0.00065232987  13.297716     -0.53600733     0.041470901    10.025882     -10.935216      6.7357953      58.713737      52.643585      60.957348      1              188413.17      1.2738995      5851.5486      15019.657     -5583.7372     -2.9523106     -1177.744       24325.564     -19855.725      3292.0952      14           
     14200   5.0150086      18579.201      314.80653      18894.007     -147.67891     -267.26769     -74.968783     -100.80026      0.0028359748   0.00284       -0.001371583   -0.00046665332  0.0028359748  -0.0013725245  -0.00046676224  11.245393     -0.30615183    -0.08681923     9.6157345     -10.919566      6.0348518      58.716079      52.635516      60.968661      1              188426.76      1.2738076      5868.5068      15007.909     -5581.4384     -2.4776969     -1180.1412      24322.861     -19856.019      3286.7011      14.2         
     14400   4.9526838      18576.556      310.89422      18887.451     -1.865685      -159.6805      -130.8375       284.92094      0.0028758607   0.00288       -0.0013804109  -0.00031788521  0.0028758607  -0.0013813646  -0.00031793574  16.501021      0.10434242     0.30717425     9.6160659     -11.372747      7.6848728      58.718421      52.635051      60.977735      1              188460.66      1.2735785      5844.3484      15009.595     -5583.2677     -2.5380348     -1159.554       24323.623     -19855.65       3308.4189      14.4         
     14600   5.0220089      18577.492      315.24596      18892.738      28.431771     -10.978873      4.4053119      91.868873      0.0029157451   0.00292       -0.0016415372  -0.00035568953  0.0029157451  -0.001642886   -0.0003557528   14.853935      0.024225173   -0.67727849     10.080252     -10.733807      9.3518497      58.720763      52.621287      60.975429      1              188411.77      1.2739089      5841.2028      15008.017     -5585.2902     -1.8206737     -1156.7288      24327.953     -19855.841      3315.3828      14.6         
     14800   5.0077795      18579.52       314.35274      18893.873      33.023245     -182.61453      169.60508      112.07918      0.0029556278   0.00296       -0.0018721908  -0.00058713663  0.0029556278  -0.0018739455  -0.00058730906  15.164451      0.071708762    0.92223901     9.6287055     -11.221843      7.2442674      58.723105      52.60913       60.961312      1              188332.14      1.2744476      5857.5531      15006.244     -5589.9415     -3.8384617     -1162.6858      24327.709     -19855.52       3309.5026      14.8         
     15000   5.0100828      18574.686      314.49732      18889.183     -205.61854     -281.34193     -56.569355     -278.94433      0.002995509    0.003         -0.00155011    -0.00062975078  0.002995509   -0.0015513127  -0.00062994916  15.267198     -0.29216261    -0.89883713     9.0941338     -10.333852      10.850726      58.725447      52.626106      60.958713      1              188392.39      1.27404        5844.9139      14997.123     -5550.492      -2.4029621     -1189.263       24330.401     -19855.594      3285.5443      15           
     15200   4.9680981      18574.808      311.86182      18886.67      -104.90073     -276.01812     -11.515638     -27.168429      0.0030353885   0.00304       -0.0016305728  -0.0003893917   0.0030353885  -0.0016319037  -0.00038946754  15.860874      0.32794398     0.19346148     9.9798174     -11.030553      7.2590305      58.727789      52.621865      60.973374      1              188430.03      1.2737855      5836.7907      15001.625     -5560.5356     -2.6485545     -1167.8663      24323.155     -19855.712      3299.5769      15.2         
     15400   4.9785818      18578.028      312.51991      18890.548     -11.011349     -106.40749      114.53186     -41.158424      0.0030752665   0.00308       -0.0015171724  -0.00052554527  0.0030752665  -0.0015183245  -0.00052568342  15.46354      -1.2068265     -0.10085408     10.394966     -12.84003       8.9189604      58.730131      52.627842      60.965069      1              188433.28      1.2737635      5846.654       15012.613     -5567.2403     -3.0497149     -1179.468       24324.275     -19855.756      3289.0508      15.4         
     15600   5.0381039      18575.98       316.25628      18892.236     -120.3372      -214.64515      36.664123     -183.03056      0.0031151429   0.00312       -0.0010806215  -0.00090545071  0.0031151429  -0.0010812057  -0.00090586087  15.516011      1.3396326     -0.37536132     9.690012      -11.854847      9.4451013      58.732473      52.650852      60.941896      1              188451.52      1.2736402      5846.9842      15003.107     -5559.3053     -2.4446396     -1177.0439      24320.199     -19855.516      3287.6392      15.6         
     15800   5.0163761      18571.58       314.89237      18886.473      26.839968     -57.415126      50.042464      87.892564      0.0031550177   0.00316       -0.0011421187  -0.0011763223   0.0031550177  -0.0011427714  -0.0011770147   13.494682     -1.1626987     -0.30741453     9.1417069     -11.731785      10.007893      58.734815      52.647611      60.925373      1              188396.34      1.2740133      5843.6988      15019.605     -5584.7268     -3.2072425     -1169.66        24321.37      -19855.5        3296.2109      15.8         
     16000   5.018561       18573.469      315.02952      18888.498     -122.86024     -185.54714     -134.63463     -48.398942      0.0031948909   0.0032        -0.0014070024  -0.001053543    0.0031948909  -0.0014079931  -0.0010540983   16.140877     -0.17032251     0.18940682     9.2136746     -12.423614      9.5201739      58.737157      52.633649      60.932862      1              188377.05      1.2741438      5849.0915      15006.332     -5575.7941     -2.2587572     -1174.9951      24326.534     -19855.441      3296.0981      16           
     16200   4.9953014      18576.877      313.56945      18890.446      4.2725051     -114.78027      57.941313      69.656477      0.0032347625   0.00324       -0.0016826097  -0.00085780147  0.0032347625  -0.0016840268  -0.00085816959  15.577807      0.50580322    -0.10743634     7.9033881     -12.94589       7.7570383      58.739499      52.619123      60.944802      1              188369.47      1.274195       5848.0598      14995.539     -5563.5982     -3.0686445     -1172.0248      24327.771     -19855.801      3299.9453      16.2         
     16400   4.9433299      18579.672      310.30705      18889.979     -11.453901     -208.6008       170.11756      4.1215351      0.0032746325   0.00328       -0.0016132678  -0.0010733585   0.0032746325  -0.0016145705  -0.001073935    9.7688478     -0.44618158    -0.60589868     11.469362     -14.27303       8.4665007      58.741841      52.622777      60.931654      1              188349.42      1.2743307      5844.9387      14999.522     -5570.3236     -1.9428914     -1160.501       24323.622     -19855.643      3307.4779      16.4         
     16600   4.9911872      18574.795      313.31119      18888.106      54.595811     -64.603065      215.08007      13.310426      0.003314501    0.00332       -0.0017548829  -0.00081496016  0.003314501   -0.0017564246  -0.00081529242  13.783794      0.15181617     0.77872431     10.607301     -11.519213      7.2826584      58.744183      52.615313      60.947415      1              188378.93      1.274131       5851.6109      15013.924     -5592.1657     -2.9913649     -1168.4038      24328.481     -19855.66       3304.4171      16.6         
     16800   4.9926093      18577.748      313.40046      18891.149     -41.376076     -126.55593      22.519757     -20.092054      0.0033543678   0.00336       -0.0016039532  -0.00088583882  0.0033543678  -0.0016052409  -0.0008862314   18.144804     -0.49935161    -0.11071278     8.4882614     -11.970755      8.6598694      58.746525      52.623268      60.943092      1              188401.56      1.273978       5848.4793      15014.651     -5568.0134     -3.999061      -1183.0966      24325.521     -19855.794      3286.6307      16.8         
     17000   5.0052516      18578.018      314.19405      18892.212     -77.448625     -285.10528     -100.58393      153.34334      0.0033942331   0.0034        -0.0015964142  -0.00059308172  0.0033942331  -0.0015976898  -0.00059325766  17.977326      0.30320729    -0.15523365     10.677633     -11.944983      8.9054463      58.748867      52.623666      60.960949      1              188465.7       1.2735444      5849.6481      14999.526     -5562.0781     -2.7901544     -1178.4589      24328.251     -19856.079      3293.7129      17           
     17200   4.9423097      18575.901      310.24301      18886.144     -10.482113     -97.761148      1.7783048      64.536505      0.0034340967   0.00344       -0.0016054495  -0.00086364799  0.0034340967  -0.0016067396  -0.00086402115  16.866375     -0.57084881    -0.476678       10.934735     -10.145603      8.3346205      58.751209      52.62319       60.944445      1              188420.48      1.2738501      5831.2127      15004.677     -5562.5097     -3.6964027     -1165.2045      24327.57      -19856.148      3306.2172      17.2         
     17400   5.0016643      18573.888      313.96887      18887.857      54.405399     -72.524063      141.10297      94.637291      0.0034739588   0.00348       -0.0016457645  -0.0010301902   0.0034739588  -0.0016471202  -0.0010307212   19.91224       0.10220336     0.3189881      9.1175809     -11.366578      8.1788786      58.753551      52.621065      60.934287      1              188388.98      1.2740631      5851.1482      15011.778     -5581.0004     -2.6610339     -1178.1833      24328.665     -19855.858      3294.6239      17.4         
     17600   4.9910945      18578.845      313.30537      18892.151     -151.13052     -278.1318       11.614998     -186.87475      0.0035138193   0.00352       -0.0016197731  -0.00070492923  0.0035138193  -0.0016210864  -0.00070517781  17.170058      0.49488348    -0.40834365     9.6045529     -11.759149      6.8132298      58.755893      52.622435      60.954127      1              188462.73      1.2735645      5858.4108      15006.46      -5578.9461     -1.8116851     -1176.5874      24326.949     -19855.629      3294.7321      17.6         
     17800   5.0276354      18577.066      315.59915      18892.665     -41.220897     -63.954053     -17.289184     -42.419454      0.0035536782   0.00356       -0.0015074035  -0.00099676217  0.0035536782  -0.0015085408  -0.00099725927  17.297403     -0.42264418    -0.067900457    12.069744     -10.41883       7.3501764      58.758235      52.628357      60.936326      1              188436.41      1.2737424      5855.696       14999.865     -5583.6591     -3.7827424     -1164.8461      24329.356     -19855.564      3308.9458      17.8         
     18000   4.9999746      18574.462      313.8628       18888.325     -149.77281     -228.81429     -169.10939     -51.394753      0.0035935355   0.0036        -0.0017441677  -0.00094935941  0.0035935355  -0.0017456906  -0.00094981034  21.017604     -0.10615855    -0.046658724    9.0786217     -13.268006      8.9437554      58.760577      52.615878      60.939217      1              188408.18      1.2739332      5838.577       14990.748     -5559.5671     -2.5814536     -1168.0849      24330.775     -19855.404      3307.2858      18           
     18200   5.0010107      18575.969      313.92784      18889.897     -74.282664     -305.9453      -10.717632      93.814937      0.0036333912   0.00364       -0.0017016643  -0.00075222348  0.0036333912  -0.0017031137  -0.00075250655  16.987247     -0.048856592   -0.14103037     10.392387     -11.886772      8.3978666      58.762919      52.618118      60.951242      1              188460.89      1.2735769      5857.4568      15010.012     -5590.7331     -2.8891775     -1168.2593      24325.725     -19855.344      3302.1224      18.2         
     18400   5.0373434      18576.861      316.20855      18893.069     -100.10541     -285.34604      35.053157     -50.023361      0.0036732454   0.00368       -0.0017732416  -0.00079218481  0.0036732454  -0.0017748156  -0.00079249876  17.578381     -0.62196701    -0.11055233     9.786714      -11.795072      6.7828854      58.765261      52.614346      60.948805      1              188447.35      1.2736684      5852.4999      15007.216     -5573.2444     -2.8945382     -1174.1895      24323.036     -19855.562      3293.284       18.4         
     18600   4.9755563      18575.954      312.32999      18888.284      95.013803     -10.912606      198.52691      97.427105      0.0037130979   0.00372       -0.0016457543  -0.0014437367   0.0037130979  -0.00164711    -0.0014447799   16.113951      0.10778558     0.13074574     9.6667893     -10.857076      8.9408715      58.767603      52.621065      60.909062      1              188356.03      1.274286       5849.8535      15007.153     -5589.839      -2.4035975     -1156.0016      24322.653     -19855.461      3311.1901      18.6         
     18800   4.9666829      18578.593      311.77298      18890.366      38.258867     -163.49491      87.251912      191.0196       0.0037529489   0.00376       -0.0016190974  -0.0010467925   0.0037529489  -0.0016204096  -0.0010473408   16.868763      0.40905032    -0.44866485     10.462199     -10.625038      9.5591306      58.769945      52.62247       60.933274      1              188443.44      1.2736948      5859.6039      15013.86      -5581.131      -2.9026834     -1180.747       24325.484     -19855.573      3289.1636      18.8         
     19000   5.0430877      18576.151      316.56913      18892.72      -199.11664     -304.9056      -193.42364     -99.020673      0.0037927982   0.0038        -0.0018238972  -0.0014338729   0.0037927982  -0.0018255626  -0.0014349019   18.886692     -0.61559606     0.014281137    11.307499     -11.660294      8.2496762      58.772287      52.611676      60.909663      1              188339.29      1.2743992      5831.6352      14995.777     -5542.6237     -2.0529037     -1179.368       24328.578     -19855.794      3293.4153      19           
     19200   4.9867941      18577.466      313.03542      18890.502     -124.57586     -299.07893      28.216774     -102.86543      0.003832646    0.00384       -0.0017169365  -0.0009983074   0.003832646   -0.0017184121  -0.00099880604  19.669971      0.084809121   -0.062619295    10.038512     -13.489833      8.9934911      58.774629      52.617313      60.936232      1              188449.14      1.2736563      5848.6373      14994.69      -5560.5815     -2.9344193     -1175.3094      24328.683     -19855.719      3297.655       19.2         
     19400   5.0032557      18578.436      314.06876      18892.504      10.94686      -87.468936      111.68857      8.6209417      0.0038724922   0.00388       -0.0017960191  -0.001071186    0.0038724922  -0.0017976338  -0.0010717601   18.090143     -0.53741793    -0.27002446     9.2442096     -12.093602      8.0764444      58.776971      52.613145      60.931786      1              188427.97      1.2737994      5849.8414      15011.957     -5582.184      -3.2381032     -1164.7685      24322.302     -19855.475      3302.0594      19.4         
     19600   4.9812112      18579.046      312.68497      18891.731     -104.38645     -205.77862     -129.79846      22.417737      0.0039123368   0.00392       -0.0015241987  -0.0010878803   0.0039123368  -0.0015253614  -0.0010884725   19.831538      0.36481186    -0.24345172     10.074127     -11.83583       8.3992688      58.779313      52.627472      60.930768      1              188483.64      1.2734232      5842.73        14994.162     -5567.2372     -1.902026      -1162.1033      24329.204     -19855.808      3311.2935      19.6         
     19800   5.0047693      18574.288      314.16377      18888.452     -9.4861999     -135.83268      4.9486763      102.4254       0.0039521798   0.00396       -0.0019984734  -0.0013097306   0.0039521798  -0.0020004731  -0.0013105891   18.41571      -0.64702459     0.087209674    8.8363026     -11.224792      9.4778239      58.781655      52.602474      60.917236      1              188359.78      1.2742606      5854.272       14999.866     -5578.9291     -1.9256593     -1171.0405      24327.644     -19855.599      3301.0049      19.8         
     20000   5.012992       18577.324      314.67994      18892.004     -81.961756     -217.50236      136.30108     -164.68399      0.0039920213   0.004         -0.0019022091  -0.00062690384  0.0039920213  -0.0019040206  -0.00062710042  23.13708       0.45712493    -0.26331241     9.0652768     -12.38726       9.6019695      58.783997      52.607548      60.958886      1              188514.25      1.2732164      5854.7926      15002.943     -5572.8842     -3.4034602     -1175.8132      24327.64      -19855.95       3295.8763      20           
     20200   4.9926361      18577.666      313.40214      18891.068     -123.05327     -307.57306     -125.17323      63.586478      0.0040318611   0.00404       -0.0019764358  -0.0012754831   0.0040318611  -0.0019783916  -0.0012762972   22.269964     -0.058500062    0.60311217     8.4847219     -12.666116      8.1264771      58.786339      52.603636      60.919325      1              188385.41      1.2740872      5844.7839      15006.11      -5569.5491     -2.3823146     -1170.4146      24325.079     -19855.961      3298.7034      20.2         
     20400   4.970412       18574.466      312.00707      18886.473     -131.5693      -274.10157     -36.458667     -84.147653      0.0040716994   0.00408       -0.0016171808  -0.00059415197  0.0040716994  -0.0016184899  -0.00059432855  20.415185     -0.6398783     -0.92347644     9.5658517     -11.976117      7.2423598      58.788681      52.622571      60.960884      1              188589.29      1.2727098      5843.0752      15009.19      -5573.753      -2.3661898     -1171.3466      24325.387     -19855.721      3298.3202      20.4         
     20600   5.0288581      18574.925      315.6759       18890.601     -56.893706     -108.45779     -49.371399     -12.851929      0.004111536    0.00412       -0.0019557493  -0.0013268387   0.004111536   -0.0019576643  -0.0013277198   21.034423      0.38279183     0.098389803    11.970052     -11.036388      7.7557019      58.791023      52.604726      60.916192      1              188394.63      1.2740248      5858.9301      15002.815     -5577.2863     -2.8894778     -1171.3137      24320.212     -19855.542      3293.3556      20.6         
     20800   5.02226        18578.179      315.26172      18893.441     -5.8965197     -233.23935      101.05661      114.49317      0.0041513711   0.00416       -0.0014368554  -0.0012334438   0.0041513711  -0.0014378887  -0.0012342051   19.16085      -0.59702819     0.18260923     9.9650946     -11.095071      6.1883463      58.793365      52.632076      60.921889      1              188517.72      1.273193       5849.5337      14995.49      -5582.9143     -3.187056      -1155.4551      24330.597     -19855.885      3319.257       20.8         
     21000   4.9783362      18576.608      312.50449      18889.113     -174.64089     -350.47488     -12.302765     -161.14503      0.0041912046   0.0042        -0.0016849479  -0.0012319582   0.0041912046  -0.001686369   -0.0012327177   19.799366      0.58334023    -0.57778122     8.5064147     -11.871717      9.5267799      58.795707      52.618999      60.92198       1              188478.67      1.2734568      5839.2655      15013.846     -5569.7347     -1.9624809     -1178.1539      24329.442     -19856.094      3295.1944      21           
     21200   5.005845       18574.542      314.2313       18888.774      39.736348     -37.446617      46.914851      109.74081      0.0042310365   0.00424       -0.001886088   -0.0014839475   0.0042310365  -0.0018878689  -0.0014850496   20.73407      -0.85619534    -0.32518126     8.7087012     -12.248758      10.180327      58.798049      52.608398      60.906609      1              188400.66      1.2739841      5864.7464      15007.917     -5598.1302     -3.1853584     -1171.9407      24331.085     -19855.95       3303.1943      21.2         
     21400   5.0036179      18579.504      314.0915       18893.595     -161.64065     -220.16678     -221.2166      -43.538554      0.0042708669   0.00428       -0.001458803   -0.0016918309   0.0042708669  -0.0014598681  -0.0016932637   20.6646        0.25010641     0.93384833     9.1584012     -11.66088       8.3607817      58.800391      52.630919      60.893929      1              188449.57      1.2736534      5843.077       15018.296     -5568.4215     -2.3710285     -1176.608       24321.029     -19855.497      3288.9231      21.4         
     21600   4.9919421      18576.623      313.35857      18889.981     -60.738495     -35.908274     -114.65818     -31.649031      0.0043106956   0.00432       -0.0018703227  -0.0013711496   0.0043106956  -0.001872074   -0.0013720905   23.543696      0.37373204    -1.0894912      10.538064     -11.55438       7.8660393      58.802733      52.609229      60.913489      1              188439.93      1.2737186      5842.8391      15008.6       -5573.577      -3.2977502     -1165.7233      24323.802     -19856.02       3302.0583      21.6         
     21800   4.9673351      18573.469      311.81393      18885.283     -146.05195     -160.26379     -10.910687     -266.98136      0.0043505227   0.00436       -0.0019082236  -0.0011484775   0.0043505227  -0.0019100466  -0.0011491375   19.334737     -0.20728853     0.7202586      10.34064      -12.291487      8.2088924      58.805075      52.607231      60.927072      1              188482.29      1.2734323      5854.0235      15008.518     -5568.4934     -2.3238181     -1183.0049      24320.058     -19855.308      3281.7451      21.8         
     22000   5.043262       18576.12       316.58007      18892.7       -117.0783      -374.47215      92.512527     -69.275291      0.0043903483   0.0044        -0.0020008274  -0.0012183602   0.0043903483  -0.0020028317  -0.001219103    21.641277     -0.44882704    -0.2809947      9.7632955     -11.473091      10.903883      58.807417      52.60235       60.922809      1              188459.13      1.2735888      5848.2927      15007.473     -5572.6321     -2.9449908     -1174.3569      24326.344     -19856.056      3295.9311      22           
     22200   4.990257       18577.864      313.2528       18891.117     -130.5678      -281.04663     -172.89368      62.236903      0.0044301723   0.00444       -0.001728988   -0.0014442494   0.0044301723  -0.0017304845  -0.0014452934   20.11324       0.087077362   -0.18601268     11.060554     -12.168224      8.9874271      58.809759      52.616678      60.90903       1              188475.33      1.2734793      5845.9351      15021.721     -5567.3086     -3.8999181     -1186.8875      24323.764     -19855.46       3281.4167      22.2         
     22400   4.9627165      18575.532      311.524        18887.056     -33.991776     -180.70523      4.7454171      73.984488      0.0044699947   0.00448       -0.0017144519  -0.0016388357   0.0044699947  -0.0017159233  -0.0016401801   23.69166      -0.010172038   -0.27487373     9.0155479     -12.542524      7.8989352      58.812101      52.617444      60.897161      1              188448.85      1.2736583      5850.9864      15018.052     -5593.8009     -2.7963595     -1167.4629      24326.217     -19855.663      3303.0913      22.4         
     22600   5.0059758      18578.198      314.23951      18892.437     -123.47009     -298.68767     -19.654699     -52.067892      0.0045098155   0.00452       -0.0021496944  -0.0011737607   0.0045098155  -0.0021520083  -0.0011744501   24.388938     -0.25193844    -0.11233072     10.694408     -12.481713      8.0900697      58.814443      52.594504      60.925529      1              188461.94      1.2735698      5834.3663      14997.128     -5557.9168     -2.5361001     -1164.6937      24327.575     -19855.724      3307.1568      22.6         
     22800   4.9944891      18577.54       313.51846      18891.058      10.531724     -90.376689      140.88028     -18.908424      0.0045496347   0.00456       -0.0023407751  -0.0011744705   0.0045496347  -0.002343519   -0.0011751607   21.104696      0.057319603    0.1256443      9.8142336     -11.819902      9.2718132      58.816785      52.584432      60.925486      1              188433.22      1.2737639      5834.8407      15020.926     -5581.8488     -2.4600147     -1163.4405      24325.289     -19855.767      3306.0819      22.8         
     23000   4.9555493      18575.886      311.07409      18886.96      -4.3245524     -186.19628      111.4734       61.749223      0.0045894523   0.0046        -0.0019972435  -0.0013267449   0.0045894523  -0.0019992406  -0.0013276258   23.133067     -0.36051922    -0.31226328     8.7317963     -12.256653      6.6678857      58.819127      52.602539      60.916198      1              188476.87      1.2734689      5834.8685      15006.838     -5581.6622     -2.1257895     -1158.9981      24332.556     -19855.59       3317.9678      23           
     23200   4.9696599      18581.626      311.95986      18893.586     -78.835359     -271.49495      8.3051135      26.683762      0.0046292684   0.00464       -0.0018611004  -0.0014765909   0.0046292684  -0.0018628344  -0.0014776821   23.984659     -0.23870927     0.21016613     12.118734     -12.150575      9.3699271      58.821469      52.609715      60.907058      1              188481.81      1.2734356      5851.3834      15005.704     -5564.82       -1.9700699     -1170.2213      24317.081     -19855.531      3291.3292      23.2         
     23400   5.0254638      18576.414      315.46283      18891.877     -4.0683019     -188.38149     -76.144843      252.32143      0.0046690828   0.00468       -0.0015078068  -0.0018637371   0.0046690828  -0.0015089447  -0.001865476    23.392802     -0.096407007   -0.54626537     9.2916209     -12.172042      8.0478223      58.823811      52.628336      60.883443      1              188482.92      1.2734281      5840.6876      15005.482     -5568.4514     -2.3276682     -1172.0239      24328.635     -19855.588      3301.0238      23.4         
     23600   4.9590944      18576.742      311.29663      18888.038     -49.02327      -175.85845     -11.321085      40.109724      0.0047088957   0.00472       -0.0021034639  -0.0015554113   0.0047088957  -0.0021056793  -0.0015566222   23.781727     -0.13467922     0.073366568    10.77839      -11.105896      7.2520313      58.826153      52.59694       60.90225       1              188436.17      1.273744       5836.0056      15004.399     -5560.7109     -3.031818      -1166.6534      24322.282     -19855.549      3300.0804      23.6         
     23800   4.9971109      18578.349      313.68304      18892.032     -111.87915     -206.96383     -40.924438     -87.74917       0.004748707    0.00476       -0.0020643197  -0.0011484956   0.004748707   -0.0020664533  -0.0011491556   20.055321      0.25888452     0.031921249    10.298636     -9.945655       9.9306539      58.828495      52.599004      60.927071      1              188527.87      1.2731245      5847.1236      15011.511     -5581.2634     -2.348087      -1165.4098      24324.623     -19855.887      3303.3261      23.8         
     24000   4.996519       18578.122      313.64588      18891.768     -106.41021     -281.42935     -9.9725004     -27.828797      0.0047885167   0.0048        -0.0024838126  -0.00097564525  0.0047885167  -0.0024869023  -0.0009761215   26.454365     -0.049643322   -0.1082714      8.4245796     -12.30246       8.0136056      58.830837      52.576893      60.937614      1              188488.73      1.2733888      5850.0881      15012.839     -5573.6748     -3.0163175     -1182.0014      24329.79      -19855.903      3291.8855      24           
     24200   4.987964       18574.55       313.10886      18887.659      41.610499     -83.446358      67.607604      140.67025      0.0048283249   0.00484       -0.0024569609  -0.0011259029   0.0048283249  -0.0024599842  -0.0011265372   23.903637     -0.6044566     -0.43871371     7.969863      -11.843564      8.2218679      58.833179      52.578308      60.928449      1              188472.96      1.2734954      5847.4173      15006.033     -5590.2635     -2.5066313     -1153.9239      24323.651     -19855.857      3313.8702      24.2         
     24400   4.9916906      18579.02       313.34279      18892.362     -146.55035     -251.45324     -61.21145      -126.98636      0.0048681314   0.00488       -0.0025907014  -0.0013042151   0.0048681314  -0.0025940631  -0.0013050663   24.042659     -0.23893481     0.75050807     8.2525867     -11.152757      8.7542161      58.835521      52.571259      60.917572      1              188421.55      1.2738428      5845.2495      15000.129     -5561.3308     -2.483189      -1174.4353      24327.412     -19855.522      3297.4548      24.4         
     24600   4.9983105      18578.517      313.75834      18892.275      76.593903     -140.12627      207.06181      162.84617      0.0049079364   0.00492       -0.002446767   -0.0011125842   0.0049079364  -0.0024497652  -0.0011132036   25.459059      0.52423236    -0.69387161     9.0994621     -11.710125      8.4898917      58.837863      52.578846      60.929261      1              188492.4       1.273364       5862.5624      14999.058     -5586.0332     -3.2124199     -1164.4887      24326.434     -19855.804      3306.1417      24.6         
     24800   4.9288057      18576.932      309.39532      18886.327     -108.28277     -284.28398     -120.46284      79.898495      0.0049477397   0.00496       -0.0022003638  -0.0017108809   0.0049477397  -0.0022027881  -0.0017123461   23.862809      0.042879973    0.15641691     8.6173226     -12.034978      8.7854745      58.840205      52.591833      60.892767      1              188433.53      1.2737618      5847.9406      14995.264     -5562.6296     -2.6170128     -1165.5455      24320.685     -19856.166      3298.9733      24.8         
     25000   4.9923992      18578.84       313.38727      18892.227     -208.48344     -376.93665     -156.16397     -92.349722      0.0049875415   0.005         -0.0020656649  -0.0013039712   0.0049875415  -0.0020678013  -0.0013048221   23.823659     -0.035122658   -0.51325308     10.296256     -11.429597      8.2819334      58.842547      52.598933      60.917587      1              188543.29      1.2730203      5847.3946      15012.402     -5574.7719     -2.7563243     -1174.9745      24327.182     -19855.636      3296.571       25           
     25200   5.0080421      18578.949      314.36922      18893.318     -301.38196     -488.72457     -215.01639     -200.40492      0.0050273417   0.00504       -0.0020433108  -0.0011648068   0.0050273417  -0.0020454012  -0.0011654857   24.853064     -0.0038312901   0.10308673     8.763701      -13.582164      8.5070099      58.844889      52.600111      60.926076      1              188581.29      1.2727638      5863.1773      15012.769     -5581.8793     -3.4235856     -1181.1117      24325.137     -19855.72       3288.305       25.2         
     25400   5.0017794      18573.786      313.97609      18887.762     -84.484965     -243.24368      32.976489     -43.187701      0.0050671403   0.00508       -0.0022454415  -0.0016491722   0.0050671403  -0.0022479663  -0.0016505335   24.266842     -0.6666666      0.38289075     11.021538     -13.305696      8.77417        58.847231      52.589457      60.896531      1              188459.17      1.2735886      5847.3683      15002.65      -5563.5862     -2.8499939     -1180.9144      24327.012     -19855.894      3290.2036      25.4         
     25600   4.9844534      18577.497      312.88849      18890.385     -105.68335     -190.32893     -105.17682     -21.544295      0.0051069374   0.00512       -0.0023907107  -0.00093711781  0.0051069374  -0.002393573   -0.00093755718  26.692335     -0.030155413   -1.0635261      11.108999     -13.013166      8.2663816      58.849573      52.5818        60.939964      1              188573.63      1.2728155      5849.3663      15002.082     -5571.2255     -3.9157882     -1168.3675      24324.951     -19855.394      3301.1895      25.6         
     25800   4.9708207      18581.455      312.03273      18893.488     -79.76637      -181.84245     -76.051313      18.59465       0.0051467328   0.00516       -0.0022763192  -0.001469989    0.0051467328  -0.002278914   -0.0014710705   26.0803       -0.16824379     0.43209826     10.074219     -10.303874      8.1889358      58.851915      52.58783       60.90746       1              188502.16      1.2732981      5848.4307      15013.389     -5571.6579     -2.3104609     -1178.0951      24327.337     -19855.638      3293.6037      25.8         
     26000   4.9614742      18576.797      311.44602      18888.243     -146.9485      -333.83835      24.223396     -131.23055      0.0051865267   0.0052        -0.0024394566  -0.0017032825   0.0051865267  -0.0024424369  -0.0017047347   25.697791     -0.038466068    0.36443566     9.8732832     -11.556307      8.5337455      58.854257      52.579231      60.89323       1              188434.8       1.2737532      5851.5045      14997.997     -5564.1327     -1.9353127     -1177.3969      24326.565     -19855.804      3293.3642      26           
     26200   4.9826535      18577.564      312.7755       18890.34      -107.51631     -233.94715     -42.939337     -45.662427      0.005226319    0.00524       -0.0021154103  -0.0017647506   0.005226319   -0.002117651   -0.0017663097   25.412759     -0.43046079    -0.70240918     9.5939744     -12.990089      9.1959593      58.856599      52.596311      60.889481      1              188491.91      1.2733673      5856.5857      15016.961     -5582.9976     -3.1926496     -1175.605       24321.63      -19855.817      3290.2077      26.2         
     26400   5.0211134      18578.361      315.18975      18893.55      -231.0073      -328.79693     -23.58313      -340.64183      0.0052661097   0.00528       -0.0023946464  -0.0016711469   0.0052661097  -0.0023975182  -0.0016725449   26.725985      0.37915983     0.11478337     10.436811     -12.265743      7.7446612      58.858941      52.581593      60.89519       1              188464.33      1.2735537      5842.0969      14993.7       -5541.9247     -3.0312732     -1184.0879      24326.995     -19855.388      3287.5194      26.4         
     26600   4.9514602      18578.132      310.81741      18888.949     -61.159773     -433.60148      194.15484      55.967315      0.0053058988   0.00532       -0.0022341143  -0.0012040131   0.0053058988  -0.0022366136  -0.0012047385   25.230005     -0.61991463    -0.33994035     9.4642445     -12.203498      7.5681051      58.861283      52.590054      60.923684      1              188590.36      1.2727026      5854.5297      15006.162     -5588.6314     -2.5370107     -1163.5408      24327.467     -19855.318      3308.6084      26.6         
     26800   5.0079645      18578.895      314.36435      18893.259     -13.89873      -189.89577      19.854565      128.34501      0.0053456863   0.00536       -0.0023750702  -0.0016444045   0.0053456863  -0.0023778951  -0.001645758    27.23208       0.090295365   -0.19250866     9.9635181     -11.143486      9.5246108      58.863625      52.582625      60.896822      1              188488.08      1.2733932      5833.3485      15012.745     -5576.8256     -2.9365726     -1151.6604      24320.205     -19855.981      3312.5634      26.8         
     27000   4.998154       18578.543      313.74851      18892.292     -58.0997       -276.00861      46.110533      55.598975      0.0053854723   0.0054        -0.0020719213  -0.0017375583   0.0053854723  -0.0020740707  -0.0017390696   26.022511      0.094316319    0.13931149     10.948322     -10.959391      7.9528299      58.865967      52.598603      60.891139      1              188535.26      1.2730745      5841.6535      15008.498     -5572.8233     -2.0174988     -1175.3954      24334.567     -19855.939      3303.2326      27           
     27200   4.9726188      18576.333      312.1456       18888.479     -106.86717     -284.15116     -14.184272     -22.266061      0.0054252566   0.00544       -0.0022202283  -0.0018957824   0.0054252566  -0.0022226966  -0.0018975816   29.216099     -0.24227726    -0.28961314     10.264125     -11.996191      7.5786681      58.868309      52.590786      60.881488      1              188484.86      1.2734149      5843.3971      15007.831     -5565.6508     -3.2835692     -1175.977       24325.381     -19855.364      3294.0401      27.2         
     27400   5.0387677      18577.226      316.29796      18893.524     -43.767118     -164.65362     -12.688683      46.040955      0.0054650394   0.00548       -0.002399687   -0.0019518052   0.0054650394  -0.0024025708  -0.0019537125   22.57129      -0.2982372     -0.033948417    9.7105594     -12.72416       8.0493201      58.870651      52.581327      60.878071      1              188447.88      1.2736648      5837.7046      15008.795     -5572.2648     -2.8540855     -1164.134       24325.858     -19855.878      3305.8457      27.4         
     27600   5.0199733      18577.853      315.11817      18892.971      8.899357      -96.233217      83.775236      39.156052      0.0055048206   0.00552       -0.0024335412  -0.0015710854   0.0055048206  -0.0024365071  -0.0015723208   27.012948      0.069363244    0.4375534      8.4191374     -11.769853      9.0752691      58.872993      52.579543      60.901294      1              188520.87      1.2731717      5853.5507      15018.382     -5597.0589     -3.0718178     -1166.4855      24328.262     -19855.726      3306.0512      27.6         
[...]
    744000   5.0077834      19335.298      314.35298      19649.651     -1103.1847     -3461.8522      140.38716      11.911077      0.13871792     0.1488        -0.051993248   -0.044826102    0.13871792    -0.053393655   -0.045861863    348.04531     -0.35106389     0.010151222    2.3683766     -11.244634      3.8079035      67.262008      49.967359      58.262862      1              195815.94      1.2257401      5848.2046      15108.852     -5511.9329      2.4342747     -695.51554      24434.288     -19851.033      3887.7403      744          
    744200   4.9809783      19334.046      312.67035      19646.716     -1076.1939     -3297.1711      68.389345      0.19991663     0.13875274     0.14884       -0.052822369   -0.044541898    0.13875274    -0.054268631   -0.045564366    353.15792      0.37288825    -0.12767901     0.99234461    -12.622525      1.2402795      67.26435       49.923658      58.280198      1              195709.71      1.2264054      5853.2513      15116.134     -5518.2706      2.867823      -700.81265      24431.868     -19850.993      3880.0626      744.2        
    744400   4.987523       19336.567      313.08118      19649.648     -1139.8373     -3410.9687     -66.272276      57.729098      0.13878755     0.14888       -0.052399971   -0.044766867    0.13878755    -0.053822776   -0.04579985     349.3671      -0.14094382     0.1258229      1.5514653     -9.3681067      3.8365843      67.266692      49.945922      58.266475      1              195757.7       1.2261047      5836.133       15130.392     -5518.1889      1.9391778     -697.36556      24434.423     -19850.766      3886.2915      744.4        
    744600   5.0249243      19336.544      315.42896      19651.973     -1100.5709     -3423.3008      57.284738      64.303345      0.13882237     0.14892       -0.052425004   -0.044586199    0.13882237    -0.053849194   -0.045610733    354.08446     -0.68229018     0.24322058     0.68956055    -11.971796      4.8780473      67.269034      49.944602      58.277496      1              195796.37      1.2258626      5856.2608      15113.988     -5520.7256      1.7278482     -705.30865      24440.982     -19850.38       3885.2924      744.6        
    744800   4.991047       19333.667      313.30239      19646.97      -1249.8331     -3566.2827     -132.72942     -50.487153      0.13885719     0.14896       -0.052033593   -0.045479876    0.13885719    -0.053436213   -0.046546553    350.69675      0.22518998    -1.1356525      2.2701649     -10.023058      5.4709692      67.271376      49.965233      58.222984      1              195700.84      1.226461       5846.9013      15114.552     -5492.5232      1.5654739     -718.31346      24432.222     -19850.738      3863.1715      744.8        
    745000   5.0043292      19336.878      314.13615      19651.014     -1081.7632     -3354.5782      36.810891      72.477622      0.138892       0.149         -0.052257888   -0.045141471    0.138892      -0.053672848   -0.046192087    350.28656     -0.70685493     0.67044794     2.3832615     -11.857797      2.6431688      67.273718      49.953411      58.243626      1              195730.71      1.2262738      5854.4223      15104.034     -5511.718       0.44246742    -694.17751      24434.674     -19850.799      3889.6977      745          
    745200   5.0195786      19338.555      315.0934       19653.649     -1036.3432     -3353.8227      147.97988      96.813085      0.13892681     0.14904       -0.051740195   -0.04500104     0.13892681    -0.053126759   -0.046045028    350.38105      0.4012921     -0.30849425     1.845032      -12.631945      1.9827235      67.27606       49.980697      58.252191      1              195873.25      1.2253814      5862.9219      15122.08      -5551.2486      0.13442751    -678.84957      24434.593     -19851.075      3904.6679      745.2        
    745400   5.0201444      19335.203      315.12892      19650.332     -1202.7982     -3549.3815     -33.247438     -25.76554       0.13896162     0.14908       -0.052356476   -0.044771359    0.13896162    -0.053776877   -0.045804553    354.03317     -0.58394946     0.01739991     1.9181584     -9.977722       5.9011224      67.278402      49.948214      58.266201      1              195799.84      1.2258408      5849.8676      15108.253     -5518.3466      0.48684513    -692.94929      24438.85      -19850.959      3894.9414      745.4        
    745600   4.9294203      19334.077      309.43391      19643.511     -1074.6132     -3315.8219     -53.96482       145.94721      0.13899643     0.14912       -0.052978505   -0.044624649    0.13899643    -0.054433488   -0.045650978    354.01307      0.77362705    -0.67225743     1.9638655     -10.281982      4.168415       67.280744      49.915428      58.27515       1              195708.18      1.2264149      5850.0595      15101.972     -5509.6117      1.0153751     -694.3912       24436.112     -19851.078      3890.6427      745.6        
    745800   4.9770498      19335.923      312.42374      19648.347     -1156.9345     -3379.0212     -142.08323      50.300847      0.13903124     0.14916       -0.052333033   -0.044725789    0.13903124    -0.053752139   -0.045756847    350.93764     -0.49342382    -0.011032693    3.5745119     -11.668787      5.202228       67.283086      49.94945       58.268981      1              195827.66      1.2256667      5864.8592      15110.787     -5527.1738      1.7065649     -704.78553      24441.55      -19851.021      3885.7443      745.8        
    746000   4.9969722      19338.636      313.67433      19652.31      -994.60276     -3138.8337      125.30162      29.723779      0.13906605     0.1492        -0.051791771   -0.044819498    0.13906605    -0.05318115    -0.045854949    347.47834      0.39033306     0.20144592     2.7430546     -11.443723      4.3764901      67.285428      49.977979      58.263265      1              195927.1       1.2250446      5849.0632      15103.218     -5525.4771      0.50756416    -669.62335      24431.4       -19850.453      3911.3237      746          
    746200   5.0107687      19339.328      314.54037      19653.868     -1266.3491     -3545.1602     -64.644562     -189.24245      0.13910085     0.14924       -0.051984613   -0.044772885    0.13910085    -0.053384546   -0.04580615     345.82831     -0.85687912    -0.1937652      3.2117239     -10.176816      3.7284956      67.28777       49.967814      58.266108      1              195903.64      1.2251913      5856.0679      15111.347     -5511.0304      1.5691031     -695.04202      24426.886     -19850.47       3881.3736      746.2        
    746400   4.9938472      19337.43       313.47817      19650.908     -1198.111      -3514.8788     -68.594483     -10.859717      0.13913566     0.14928       -0.052054374   -0.045222063    0.13913566    -0.053458135   -0.046276492    352.01667      0.22684839     0.073866601    1.2613717     -11.660355      3.3915354      67.290112      49.964137      58.23871       1              195803.92      1.2258153      5853.3605      15096.489     -5505.5383      0.6215153     -684.18032      24427.619     -19850.942      3892.4966      746.4        
    746600   4.9930993      19336.493      313.43122      19649.924     -1129.6556     -3332.3103      13.506163     -70.162718      0.13917046     0.14932       -0.051929402   -0.044751211    0.13917046    -0.053326309   -0.04578346     343.34314     -0.16401461    -0.44177884     1.4355817     -10.090336      5.033695       67.292454      49.970724      58.26743       1              195933.13      1.2250069      5855.6802      15097.155     -5513.6925      2.8380283     -689.44173      24434.756     -19850.803      3894.5119      746.6        
    746800   5.0201289      19341.037      315.12794      19656.165     -1121.8009     -3287.0461      87.173048     -165.5296       0.13920527     0.14936       -0.052114815   -0.045056653    0.13920527    -0.053521897   -0.046103263    347.7873      -0.53712132     0.78328793     2.8265641     -11.317001      2.4134311      67.294796      49.960952      58.248799      1              195838.99      1.2255958      5855.848       15116.673     -5517.2509      1.4367887     -695.75035      24431.208     -19851.128      3884.3297      746.8        
    747000   4.9649396      19339.547      311.66355      19651.211     -1157.8606     -3466.6374     -77.189567      70.245145      0.13924007     0.1494        -0.051934556   -0.045601742    0.13924007    -0.053331746   -0.046674234    352.95486      0.50700985    -0.71508357     1.1166548     -10.81825       2.7601431      67.297138      49.970453      58.21555       1              195771.24      1.2260199      5853.2634      15114.715     -5514.1552      2.4929144     -697.50746      24431.527     -19850.788      3883.231       747          
    747200   5.0136332      19336.679      314.72019      19651.399     -1194.4502     -3440.5613     -85.973598     -56.815621      0.13927487     0.14944       -0.052385293   -0.045177573    0.13927487    -0.053807287   -0.046229896    350.40844     -0.4184463      0.15779941     2.2099575     -11.607249      3.462572       67.29948       49.946695      58.241423      1              195771.94      1.2260155      5852.9818      15109.394     -5516.3243      2.033323      -698.37854      24438.136     -19851.163      3888.5943      747.2        
    747400   4.9909873      19340.583      313.29864      19653.881     -1177.2014     -3488.2602     -15.36184      -27.982304      0.13930967     0.14948       -0.051942897   -0.045104405    0.13930967    -0.053340544   -0.046153269    351.90493      0.36630093    -0.39465279     5.0654736     -10.723541      3.4514904      67.301822      49.970013      58.245886      1              195885.16      1.2253069      5860.9672      15093.701     -5491.7751      1.5751977     -713.22232      24440.487     -19851.15       3876.114       747.4        
    747600   5.0840146      19342.51       319.13823      19661.648     -1069.6536     -3306.91        10.04611       87.903202      0.13934446     0.14952       -0.052330648   -0.04482502     0.13934446    -0.053749622   -0.04586073     350.63311     -0.41928506     0.10318286     2.2927943     -11.345185      4.4616633      67.304164      49.949576      58.262928      1              195869.15      1.2254071      5848.2425      15102.033     -5512.2901      1.8968108     -683.32634      24437.254     -19851.3        3902.6275      747.6        
    747800   4.9902848      19342.453      313.25455      19655.707     -1089.2372     -3401.7167      197.02472     -63.019487      0.13937926     0.14956       -0.052773121   -0.044574738    0.13937926    -0.054216638   -0.045598737    348.42752     -0.24203417    -0.14515816     0.79508339    -11.423691      3.7987629      67.306506      49.926254      58.278195      1              195835.81      1.2256157      5850.3349      15108.304     -5513.2864      0.76271442    -687.08847      24434.506     -19851.08       3896.3375      747.8        
    748000   4.9885139      19341.438      313.14338      19654.581     -1078.1015     -3537.3731      136.65327      166.41545      0.13941406     0.1496        -0.052014523   -0.045278589    0.13941406    -0.053416097   -0.046335698    355.65593      0.21916986    -0.2140556      1.7166665     -13.19353       4.4120199      67.308848      49.966238      58.235262      1              195855.08      1.2254951      5859.7099      15104.812     -5523.5355      1.1210753     -690.68421      24440.671     -19850.657      3899.3304      748          
    748200   5.0065287      19339.863      314.27422      19654.138     -1116.6106     -3562.6616      111.38795      101.44196      0.13944885     0.14964       -0.052384899   -0.044840207    0.13944885    -0.05380687    -0.04587663     354.53669      0.037132892   -0.18928759     1.8786662     -14.343371      3.4737915      67.31119       49.946716      58.262002      1              195875.27      1.2253688      5844.8399      15114.328     -5515.2944      1.8785643     -694.62453      24439.046     -19850.31       3894.1111      748.2        
    748400   4.9760278      19339.161      312.35959      19651.52      -1129.6732     -3427.2655      43.82         -5.5741646      0.13948364     0.14968       -0.05229805    -0.045514344    0.13948364    -0.053715225   -0.046582663    352.33524     -0.22783666    -0.31227999     3.4748439     -12.791095      5.2138952      67.313532      49.951294      58.220881      1              195761.77      1.2260792      5856.5033      15116.795     -5526.5078      1.6840903     -690.44656      24431.769     -19850.636      3890.686       748.4        
    748600   4.9939806      19344.443      313.48654      19657.93      -1140.0979     -3447.0435      21.782881      4.9668443      0.13951843     0.14972       -0.052203948   -0.045272306    0.13951843    -0.053615935   -0.046329116    356.79405     -0.47255751     0.24647007     2.5070763     -9.7932316      8.6007291      67.315874      49.956254      58.235645      1              195837.67      1.225604       5848.837       15104.826     -5521.7018      1.8257905     -669.00101      24430.46      -19850.803      3910.6562      748.6        
    748800   5.0100392      19344.11       314.49458      19658.605     -1233.6669     -3495.5691     -78.728128     -126.70357      0.13955322     0.14976       -0.052421656   -0.044972433    0.13955322    -0.05384566    -0.046015073    352.6444       0.33192988    -0.23558132     3.0128017     -8.0769457      4.6386285      67.318216      49.944779      58.253936      1              195861         1.2254581      5854.4041      15102.697     -5511.8976      1.1489507     -685.7658       24433.777     -19850.253      3897.7584      748.8        
    749000   4.9791595      19339.529      312.55618      19652.086     -1305.048      -3650.0535     -146.06275     -119.0277       0.13958801     0.1498        -0.052447218   -0.044838003    0.13958801    -0.053872637   -0.045874323    353.92336     -0.7912677      0.17306866     4.8820584     -10.944905      4.6086567      67.320558      49.943431      58.262136      1              195890.1       1.225276       5850.8723      15118.376     -5526.7873      1.5877322     -694.53868      24440.385     -19850.366      3895.4803      749          
    749200   4.9864554      19344.714      313.01416      19657.728     -1162.1735     -3468.3947      14.185185     -32.31085       0.1396228      0.14984       -0.05222085    -0.044704601    0.1396228     -0.053633768   -0.045734668    353.34269      0.31657593    -0.53160833     3.9185046     -10.397543      3.460244       67.322899      49.955363      58.270273      1              195971.08      1.2247697      5854.6363      15121.031     -5531.7332      1.284901      -691.68364      24441.756     -19850.577      3899.4945      749.2        
    749400   5.0111987      19343.844      314.56737      19658.411     -1037.421      -3395.3537      127.32035      155.7703       0.13965759     0.14988       -0.051733759   -0.045102377    0.13965759    -0.053119971   -0.046151146    350.63113     -0.41822286     0.38976182     2.8692854     -11.726028      4.0409776      67.325241      49.981036      58.24601       1              195996.97      1.2246079      5857.892       15097.4       -5526.9217      2.1080665     -671.52454      24435.245     -19850.355      3913.3654      749.4        
    749600   4.9309585      19344.017      309.53046      19653.548     -1182.1123     -3578.0873      32.527895     -0.77734138     0.13969237     0.14992       -0.052680424   -0.044685758    0.13969237    -0.054118781   -0.045714944    350.73173      0.36209181    -0.87389884     4.1744735     -12.653048      3.4540187      67.327583      49.93114       58.271423      1              195893.55      1.2252545      5850.6689      15106.6       -5498.3388      0.38033781    -698.00816      24433.219     -19850.505      3884.7062      749.6        
    749800   5.0183987      19344.834      315.01934      19659.853     -1055.3669     -3435.9794      51.703203      218.17533      0.13972716     0.14996       -0.052570014   -0.04524008     0.13972716    -0.054002239   -0.046295363    352.68644      0.0528084      0.31130225     3.5231999     -10.12631       2.7940431      67.329925      49.936959      58.237611      1              195809.51      1.2257803      5863.1445      15109.783     -5533.5228      1.3996465     -679.09444      24434.038     -19850.914      3904.0295      749.8        
    750000   4.965406       19346.535      311.69283      19658.228     -1180.3386     -3422.2953     -46.746267     -71.974263      0.13976194     0.15          -0.052735267   -0.045237588    0.13976194    -0.054176676   -0.046292752    353.78227     -0.76805125    -0.24688416    -0.64707691    -11.801608      2.0402648      67.332267      49.928249      58.237763      1              195782.67      1.2259483      5847.8932      15125.791     -5508.2876      2.5143742     -707.73744      24437.013     -19850.652      3878.624       750          
Loop time of 11929.6 on 16 procs for 750000 steps with 21060 atoms

Performance: 5.432 ns/day, 4.418 hours/ns, 62.869 timesteps/s, 1.324 Matom-step/s
98.9% CPU use with 16 MPI tasks x no OpenMP threads

MPI task timing breakdown:
Section |  min time  |  avg time  |  max time  |%varavg| %total
---------------------------------------------------------------
Pair    | 7559.8     | 7971.3     | 8361.7     | 300.2 | 66.82
Bond    | 1687.6     | 1758.3     | 1845.3     | 123.7 | 14.74
Kspace  | 1041.7     | 1517.8     | 1999.4     | 810.5 | 12.72
Neigh   | 77.82      | 77.841     | 77.855     |   0.1 |  0.65
Comm    | 175.98     | 177.24     | 178.33     |   4.3 |  1.49
Output  | 44.24      | 44.242     | 44.25      |   0.0 |  0.37
Modify  | 325.38     | 348.62     | 362.3      |  62.3 |  2.92
Other   |            | 34.36      |            |       |  0.29

Nlocal:        1316.25 ave        1379 max        1264 min
Histogram: 1 1 4 2 1 2 0 3 1 1
Nghost:        13625.7 ave       13696 max       13550 min
Histogram: 2 1 0 2 1 3 3 2 1 1
Neighs:         813465 ave      859803 max      776064 min
Histogram: 3 1 1 2 2 2 1 2 0 2

Total # of neighbors = 13015435
Ave neighs/atom = 618.01686
Ave special neighs/atom = 5.8019943
Neighbor list builds = 3790
Dangerous builds = 0

#-------------------Wrap up-------------------
write_restart  ${myid}.restart
write_restart  tensile_1_EPON_862_pxld_86.8_replicate_4_FF_PCFF_temp_5.restart
System init for write_restart ...
PPPM initialization ...
  using 12-bit tables for long-range coulomb (../kspace.cpp:342)
  G vector (1/distance) = 0.17414814
  grid = 15 12 15
  stencil order = 5
  estimated absolute RMS force accuracy = 0.031423841
  estimated relative force accuracy = 9.4631963e-05
  using double precision KISS FFT
  3d grid and FFT values/proc = 1430 192
Generated 66 of 66 mixed pair_coeff terms from sixthpower/sixthpower mixing rule
write_data     ${myid}.data
write_data     tensile_1_EPON_862_pxld_86.8_replicate_4_FF_PCFF_temp_5.data
System init for write_data ...
PPPM initialization ...
  using 12-bit tables for long-range coulomb (../kspace.cpp:342)
  G vector (1/distance) = 0.17414814
  grid = 15 12 15
  stencil order = 5
  estimated absolute RMS force accuracy = 0.031423841
  estimated relative force accuracy = 9.4631963e-05
  using double precision KISS FFT
  3d grid and FFT values/proc = 1430 192
Generated 66 of 66 mixed pair_coeff terms from sixthpower/sixthpower mixing rule
Total wall time: 3:18:50
