thermo_style   custom step temp pe ke etotal press pxx pyy pzz v_etrue v_eengx v_eengy v_eengz v_etruex v_etruey v_etruez                f_sxx_ave f_syy_ave f_szz_ave f_sxy_ave f_sxz_ave f_syz_ave lx ly lz v_dir vol density ebond eangle edihed                eimp evdwl ecoul elong epair v_Time

restart        ${nsteps} rst1.a.${myid} rst2.a.${myid}
restart        200 rst1.a.${myid} rst2.a.${myid}
restart        200 rst1.a.tensile_1_EPON_862_pxld_86.8_replicate_4_FF_PCFF_temp_38 rst2.a.${myid}
restart        200 rst1.a.tensile_1_EPON_862_pxld_86.8_replicate_4_FF_PCFF_temp_38 rst2.a.tensile_1_EPON_862_pxld_86.8_replicate_4_FF_PCFF_temp_38
dump           6 all atom 10000 dump.${myid} #every picosecond
dump           6 all atom 10000 dump.tensile_1_EPON_862_pxld_86.8_replicate_4_FF_PCFF_temp_38 
dump_modify    6 scale no sort id

#-------------------Run-------------------
run            ${steps}
run            750000

CITE-CITE-CITE-CITE-CITE-CITE-CITE-CITE-CITE-CITE-CITE-CITE-CITE

Your simulation uses code contributions which should be cited:

- Type Label Framework: https://doi.org/10.1021/acs.jpcb.3c08419

@Article{Gissinger24,
 author = {Jacob R. Gissinger, Ilia Nikiforov, Yaser Afshar, Brendon Waters, Moon-ki Choi, Daniel S. Karls, Alexander Stukowski, Wonpil Im, Hendrik Heinz, Axel Kohlmeyer, and Ellad B. Tadmor},
 title = {Type Label Framework for Bonded Force Fields in LAMMPS},
 journal = {J. Phys. Chem. B},
 year =    2024,
 volume =  128,
 number =  13,
 pages =   {3282–-3297}
}

CITE-CITE-CITE-CITE-CITE-CITE-CITE-CITE-CITE-CITE-CITE-CITE-CITE

PPPM initialization ...
  using 12-bit tables for long-range coulomb (../kspace.cpp:342)
  G vector (1/distance) = 0.18098382
  grid = 15 15 15
  stencil order = 5
  estimated absolute RMS force accuracy = 0.022541608
  estimated relative force accuracy = 6.7883382e-05
  using double precision KISS FFT
  3d grid and FFT values/proc = 1521 256
Generated 66 of 66 mixed pair_coeff terms from sixthpower/sixthpower mixing rule
Neighbor list info ...
  update: every = 1 steps, delay = 0 steps, check = yes
  max neighbors/atom: 5000, page size: 100000
  master list distance cutoff = 14
  ghost atom cutoff = 14
  binsize = 7, bins = 9 8 9
  1 neighbor lists, perpetual/occasional/extra = 1 0 0
  (1) pair lj/class2/coul/long, perpetual
      attributes: half, newton on
      pair build: half/bin/newton
      stencil: half/bin/3d
      bin: standard
WARNING: Inconsistent image flags (../domain.cpp:1051)
Per MPI rank memory allocation (min/avg/max) = 19.48 | 19.58 | 19.86 Mbytes
   Step          Temp          PotEng         KinEng         TotEng         Press           Pxx            Pyy            Pzz          v_etrue        v_eengx        v_eengy        v_eengz        v_etruex       v_etruey       v_etruez      f_sxx_ave      f_syy_ave      f_szz_ave      f_sxy_ave      f_sxz_ave      f_syz_ave          Lx             Ly             Lz           v_dir          Volume        Density         E_bond        E_angle        E_dihed        E_impro         E_vdwl         E_coul         E_long         E_pair         v_Time    
         0   38.09419       20670.207      2391.282       23061.489     -84.321452     -17.58133      -170.19196     -65.191069      0              3.6322131e-16  6.738656e-16   3.4877355e-16  4.4408921e-16  6.6613381e-16  4.4408921e-16  0              0              0              0              0              0              58.686761      52.721398      61.117828      1              189101.5       1.2692625      6630.9521      15816.428     -5278.3128      41.233049     -1043.4321      24340.654     -19837.315      3459.9069      0            
       200   37.707537      20650.493      2367.0106      23017.504      133.72597      121.83826      49.53435       229.8053       3.99992e-05    4e-05          0.00023942339 -0.0019493159   3.99992e-05    0.00023939474 -0.0019512183  -3.6513806      0.27066979    -0.35725615     10.843262     -19.101772      7.0914639      58.689108      52.734021      60.99869       1              188785.62      1.2713862      6611.3746      15831.61      -5300.9584      42.123167     -1046.7863      24349.792     -19836.662      3466.3441      0.2          
       400   38.069461      20639.303      2389.7297      23029.032      20.656263      232.01012     -215.86984      45.828515      7.99968e-05    8e-05          0.00033549886 -0.0017401885   7.99968e-05    0.0003354426  -0.0017417044  -2.1698023     -0.75490337     1.2330943      6.0208888     -19.08857       4.7876521      58.691456      52.739086      61.011472      1              188850.87      1.270947       6637.541       15826.304     -5287.5117      39.495788     -1087.7613      24348.026     -19836.792      3423.4732      0.4          
       600   38.256478      20640.99       2401.4693      23042.459     -253.72866     -220.98015     -316.06837     -224.13747      0.0001199928   0.00012       -0.0001921904  -0.0018311698   0.0001199928  -0.00019220888 -0.0018328484  -2.9744631     -0.18225587    -0.75012839     4.9206406     -22.786616      7.496259       58.693803      52.711266      61.005911      1              188741.59      1.2716828      6568.091       15824.357     -5251.872       42.003165     -1052.0046      24347.627     -19837.212      3458.4105      0.6          
       800   37.41357       20650.133      2348.5575      22998.691     -247.2992      -529.95426     -51.909274     -160.03408      0.0001599872   0.00016        0.00049128985 -0.0020539796   0.0001599872   0.00049116921 -0.0020560919   4.0013252      0.062472656    0.69439817    -0.6591458     -21.255466      4.5313755      58.696151      52.7473        60.992294      1              188836.01      1.271047       6589.3083      15806.999     -5283.3901      42.428688     -1003.6929      24335.288     -19836.808      3494.7873      0.8          
      1000   37.589208      20679.916      2359.5828      23039.499      48.456569      341.61421      134.84863     -331.09313      0.00019998     0.0002        -4.1682179e-05 -0.0012049193   0.00019998    -4.1683047e-05 -0.0012056458   2.9917007      1.1720325     -1.8036243      0.44036752    -20.017413      6.3901812      58.698498      52.719201      61.044186      1              188903.55      1.2705925      6620.7135      15817.323     -5276.7144      43.616301     -1021.4819      24333.187     -19836.727      3474.9774      1            
      1200   38.165408      20642.397      2395.7526      23038.15      -63.305698      10.740987     -235.88274      35.224657      0.0002399712   0.00024        0.00012330947 -0.0012922334   0.0002399712   0.00012330187 -0.001293069   -3.4923795     -1.9306421      0.94492002     10.037551     -13.853357      4.5666294      58.700846      52.727899      61.03885       1              188925.76      1.2704432      6598.6171      15824.642     -5281.8399      44.09005      -1025.013       24318.344     -19836.444      3456.8873      1.2          
      1400   38.135434      20638.247      2393.871       23032.118     -22.131974      156.24479     -4.1767915     -218.46393      0.00027996081  0.00028        0.00066990704 -0.0018005852   0.00027996081  0.00066968276 -0.0018022082   8.9337936      0.74046701    -0.58604039     0.67583967    -19.675052      7.3294294      58.703193      52.756717      61.00778       1              188940.35      1.2703451      6591.1639      15837.023     -5269.1059      44.627885     -1053.8686      24325.375     -19836.969      3434.538       1.4          
      1600   38.291825      20629.837      2403.6881      23033.525     -29.853448     -213.01375      199.86474     -76.411337      0.00031994881  0.00032       -0.0008905904  -0.0015704419   0.00031994881 -0.00089098721 -0.0015716763   1.0113626     -1.7374644     -2.0011273      5.5848636     -17.548007      10.183204      58.70554       52.674445      61.021846      1              188696.74      1.2719851      6580.9292      15790.074     -5261.7296      41.755853     -1032.0294      24350.164     -19839.327      3478.8076      1.6          
      1800   37.982152      20637.879      2384.249       23022.128      57.852348      274.87752     -182.32674      81.006263      0.00035993522  0.00036       -0.00033725332 -0.00011761885  0.00035993522 -0.0003373102  -0.00011762577  4.8590146      0.73370482     3.4451173      9.874654      -21.316273      3.6707897      58.707888      52.703618      61.11064       1              189083.54      1.2693831      6581.5378      15797.294     -5292.4779      41.345705     -997.98033      24346.05      -19837.89       3510.1795      1.8          
      2000   37.728854      20646.827      2368.3488      23015.176     -243.19459      71.189827     -361.74839     -439.02519      0.00039992002  0.0004         0.00018760926 -0.0015403352   0.00039992002  0.00018759167 -0.0015415228  -0.89808866    -3.4318559     -1.9459374      12.000692     -15.437096      8.5212693      58.710235      52.731289      61.023686      1              188921.18      1.270474       6542.4789      15827.366     -5237.9044      43.907111     -1041.5187      24350.206     -19837.708      3470.9791      2            
      2200   38.027006      20670.342      2387.0647      23057.406     -41.317122     -548.05042      164.54396      259.55509      0.00043990323  0.00044       -0.00015276739 -0.0012872351   0.00043990323 -0.00015277906 -0.0012880643   4.5412154      3.6372304      0.38396085     4.0395218     -20.740422      4.6536021      58.712583      52.713344      61.039155      1              188912.31      1.2705336      6622.4079      15847.497     -5309.3371      39.15463      -1032.6384      24340.46      -19837.203      3470.6191      2.2          
      2400   37.935804      20638.315      2381.3396      23019.654     -231.0071      -361.16965     -303.5726      -28.279044      0.00047988484  0.00048       -0.00028733135 -0.0013049092   0.00047988484 -0.00028737264 -0.0013057613   3.5331428      4.8479927     -2.2646419      5.9202958     -16.683438      3.5814093      58.71493       52.70625       61.038075      1              188891.1       1.2706763      6628.7681      15802.166     -5290.532       42.28989      -1042.1231      24334.782     -19837.036      3455.6223      2.4          
      2600   37.889045      20636.324      2378.4044      23014.728     -0.088722306    12.135293      227.55982     -239.96128      0.00051986485  0.00052       -0.00088474759 -0.00094392803  0.00051986485 -0.00088513921 -0.00094437381 -3.0007339     -4.3605145      2.1326951      5.9007206     -20.031785      8.0972849      58.717278      52.674753      61.060137      1              188854.01      1.2709259      6609.1421      15808.931     -5298.4963      41.367802     -1040.4986      24353.305     -19837.427      3475.3795      2.6          
      2800   38.189842      20661.265      2397.2864      23058.551     -34.895647      63.61313      -304.66807      136.368        0.00055984326  0.00056       -0.00063760345 -0.00088248357  0.00055984326 -0.00063780681 -0.00088287319  4.1143035      3.9709287      2.6240439      4.8171673     -22.867983      0.52570013     58.719625      52.687783      61.063893      1              188919.89      1.2704826      6570.7312      15810.604     -5235.3191      44.150863     -1024.5583      24333.475     -19837.819      3471.0983      2.8          
      3000   37.709703      20645.096      2367.1466      23012.242      298.97618      204.98176      446.37233      245.57444      0.00059982007  0.0006        -0.00037760214 -0.0016336034   0.00059982007 -0.00037767345 -0.0016349392  -6.1199618     -8.8520326     -2.7495911      6.1926521     -21.821771      6.7009868      58.721973      52.70149       61.017986      1              188834.53      1.271057       6604.697       15850.816     -5320.9206      43.417152     -1032.5436      24337.656     -19838.026      3467.0861      3            
      3200   37.84741       20673.822      2375.7909      23049.612      56.547989      247.98871     -170.5102       92.165451      0.00063979529  0.00064        0.0011714788  -0.0020527476   0.00063979529  0.0011707931  -0.0020548573   12.732934      2.7626592      3.0084622      7.6202325     -18.004519      6.5544638      58.72432       52.78316       60.992369      1              189055.31      1.2695726      6577.8349      15832.53      -5294.8182      40.947583     -1000.5059      24354.754     -19836.921      3517.3272      3.2          
      3400   37.975277      20662.155      2383.8174      23045.973      66.30448      -108.8664      -116.22185      424.00169      0.0006797689   0.00068        0.00058152178 -0.0027009726   0.0006797689   0.00058135277 -0.0027046268   0.56129418     2.0920204     -2.5456204      5.3952019     -20.850088      7.7835074      58.726668      52.752057      60.952751      1              188828.73      1.271096       6601.2396      15796.182     -5257.5622      42.246155     -1035.5592      24353.212     -19837.604      3480.0491      3.4          
      3600   37.940051      20647.626      2381.6062      23029.233      98.526725      438.17241      26.752708     -169.34495      0.00071974092  0.00072        0.00078778789 -0.0030136889   0.00071974092  0.00078747775 -0.0030182392   4.8414128     -1.4809412      0.47156557     0.66840615    -17.171338      10.794144      58.729015      52.762931      60.933638      1              188815.98      1.2711818      6589.7034      15795.017     -5269.633       43.457497     -1042.81        24369.141     -19837.25       3489.0816      3.6          
      3800   37.623982      20653.537      2361.7656      23015.302      49.321028      48.514403     -102.83946      202.28814      0.00075971135  0.00076        0.00091197636 -0.002371496    0.00075971135  0.00091156076 -0.0023743124   2.8725502      2.191288      -3.9775061      5.2878721     -22.93184       7.8477154      58.731363      52.769479      60.972888      1              188968.6       1.2701551      6582.9198      15866.582     -5302.9584      44.881566     -1046.6557      24346.81      -19838.043      3462.1116      3.8          
      4000   38.217107      20632.271      2398.9978      23031.269     -30.222475     -180.49461     -32.161079      121.98826      0.00079968017  0.0008         0.00062203892 -0.0016918162   0.00079968017  0.00062184553 -0.001693249    0.26655848    -3.3243503      1.1946064      4.5098601     -16.468325      10.457688      58.73371       52.754193      61.014428      1              189050.12      1.2696074      6583.034       15817.928     -5321.9449      40.494272     -1002.7808      24353.483     -19837.943      3512.7597      4            
      4200   38.190438      20659.542      2397.3237      23056.866      49.009471      56.369863      194.73466     -104.07611      0.0008396474   0.00084        0.00055841894 -0.0024691299   0.0008396474   0.00055826308 -0.0024721832   2.7088928      1.6418861     -0.70243869     5.0734169     -15.872991      5.2170225      58.736058      52.750839      60.96692       1              188898.46      1.2706268      6573.2288      15795.875     -5251.5665      39.900998     -1026.3074      24365.527     -19837.116      3502.1036      4.2          
      4400   37.72641       20637.822      2368.1954      23006.018     -232.53432     -194.83829     -229.32934     -273.43535      0.00087961303  0.00088        0.00071447093 -0.0020799932   0.00087961303  0.00071421582 -0.0020821594   9.431502       0.87153045     3.5290263      9.7286547     -22.835377      5.9795062      58.738405      52.759066      60.990704      1              189009.18      1.2698825      6569.8503      15788.012     -5240.7441      41.557476     -1022.5562      24339.107     -19837.405      3479.146       4.4          
      4600   38.089402      20645.119      2390.9814      23036.1       -57.426874     -172.82872      2.5622047     -2.0141009      0.00091957706  0.00092        1.3592268e-07 -0.0018426183   0.00091957706  1.3592267e-07 -0.001844318   -1.2129653      1.9181522     -3.9795835      9.056332      -20.017758      3.4240946      58.740753      52.721405      61.005211      1              188926.74      1.2704366      6657.6075      15829.709     -5321.9158      42.243666     -1068.0502      24342.408     -19836.883      3437.4747      4.6          
      4800   38.077634      20664.734      2390.2427      23054.976     -150.09507     -679.79783      313.20941     -83.696781      0.00095953949  0.00096       -0.00037261739 -0.0011358384   0.00095953949 -0.00037268683 -0.001136484    1.8757029     -4.513195       3.0811831      10.048875     -23.672649      4.3519452      58.7431        52.701753      61.048408      1              188997.59      1.2699603      6586.3261      15826.751     -5272.643       40.995294     -1026.6809      24347.482     -19837.497      3483.3039      4.8          
      5000   38.239424      20660.012      2400.3988      23060.41      -220.93069     -240.18029     -166.32982     -256.28196      0.00099950033  0.001          0.00016373185 -0.0020330935   0.00099950033  0.00016371844 -0.002035163    1.3863431      1.7485441     -2.9619631      11.003538     -16.911417      8.2140522      58.745447      52.73003       60.99357       1              188936.69      1.2703697      6601.5573      15805.973     -5256.7848      44.204949     -1043.78        24346.845     -19838.005      3465.0606      5            
      5200   38.398221      20609.471      2410.3669      23019.838     -155.07684     -151.16154     -381.86973      67.800742      0.0010394596   0.00104        0.00022975989 -0.0015041751   0.0010394596   0.0002297335  -0.0015053075   1.8601572      0.80719939     1.9285979      2.5907543     -14.818684      0.62699708     58.747795      52.733511      61.025896      1              189056.86      1.2695622      6600.502       15764.005     -5267.9774      42.830162     -1043.1354      24350.443     -19837.197      3470.1108      5.2          
      5400   38.258122      20633.763      2401.5724      23035.335      66.799048     -126.85833      66.194694      261.06078      0.0010794172   0.00108       -0.00086556307 -0.0015973108   0.0010794172  -0.00086593788 -0.0015985879   10.024053     -1.5874279     -4.7351305      4.8040727     -22.784911      4.1701299      58.750142      52.675765      61.020204      1              188839.75      1.2710218      6587.4437      15807.042     -5262.667       43.089584     -1056.2352      24352.809     -19837.72       3458.8544      5.4          
      5600   37.853032      20677.415      2376.1438      23053.559     -51.48561      -180.66841      112.85161     -86.640029      0.0011193733   0.00112       -0.00048670331 -0.0010794735   0.0011193733  -0.00048682179 -0.0010800566   9.7176284     -1.7709331      4.0590986      6.8969456     -16.952823      8.3261056      58.75249       52.695739      61.051853      1              189016.89      1.2698306      6622.4549      15813.091     -5258.7844      42.511105     -1052.3976      24348.193     -19837.653      3458.1422      5.6          
      5800   37.738391      20652.631      2368.9474      23021.578     -30.178031     -153.49829     -19.494222      82.458423      0.0011593277   0.00116        0.00023875085 -0.0013467926   0.0011593277   0.00023872236 -0.0013477004   14.45056       4.2097944      3.4493551      5.8739138     -15.762236      11.126584      58.754837      52.733985      61.035515      1              189111.02      1.2691986      6586.4322      15795.114     -5276.003       40.852819     -1013.1891      24356.599     -19837.175      3506.2351      5.8          
      6000   38.469113      20661.906      2414.8169      23076.723     -222.81055     -207.30998     -437.58272     -23.538944      0.0011992806   0.0012        -0.00016180541 -0.0023197536   0.0011992806  -0.00016181851 -0.0023224484   7.4378504      1.0935298     -1.9821602      2.6782041     -20.443599      8.326337       58.757185      52.712868      60.97605       1              188858.66      1.2708945      6598.4708      15837.988     -5272.2026      41.875727     -1044.4569      24338.035     -19837.804      3455.774       6            
      6200   37.879526      20660.839      2377.8069      23038.646     -83.791174      84.950097     -153.15513     -183.16849      0.0012392318   0.00124       -0.00012463572 -0.0012661468   0.0012392318  -0.00012464349 -0.0012669491   1.1955675     -6.1057502     -4.3000227      7.122267      -15.590229      2.9078543      58.759532      52.714827      61.040444      1              189072.69      1.2694559      6615.0161      15846.584     -5296.6716      45.677298     -1046.4489      24334.428     -19837.746      3450.2336      6.2          
      6400   37.679919      20664.132      2365.277       23029.409     -20.926482     -117.39606      278.08651     -223.4699       0.0012791815   0.00128       -0.00048336471 -0.0012544924   0.0012791815  -0.00048348156 -0.0012552799   8.5911845      1.8898911      4.6910678     -0.48783965    -18.03503       7.8559612      58.76188       52.695915      61.041156      1              189014.61      1.269846       6631.3226      15835.957     -5295.1636      40.451577     -1064.2989      24353.427     -19837.564      3451.5642      6.4          
      6600   38.088629      20679.897      2390.9329      23070.83       410.59278      216.18467      857.82497      157.7687       0.0013191296   0.00132       -0.00098371694 -0.0011163034   0.0013191296  -0.00098420111 -0.001116927    1.7832338     -2.2162521     -4.0693836      5.6235856     -14.340572      3.9301774      58.764227      52.669535      61.049602      1              188953.68      1.2702554      6660.7189      15821.454     -5292.9863      44.110872     -1055.312       24338.532     -19836.621      3446.5994      6.6          
      6800   38.045309      20650.478      2388.2135      23038.691     -271.40206     -313.52964     -268.462       -232.21453      0.001359076    0.00136       -0.0010729827  -0.00062470287  0.001359076   -0.0010735588  -0.00062489807  2.7169193     -1.3631881     -0.6636298      2.0970593     -16.060207      5.9691701      58.766575      52.664829      61.079648      1              189037.33      1.2696933      6637.5247      15805.803     -5265.6905      41.221873     -1079.5484      24349.424     -19838.257      3431.619       6.8          
      7000   38.061656      20644.455      2389.2397      23033.694     -253.41684     -313.3523      -38.299729     -408.59847      0.0013990209   0.0014         0.00021431515 -0.0022598936   0.0013990209   0.00021429219 -0.002262451    8.2436787      1.5597767      3.941368       8.0317903     -21.486877      10.271972      58.768922      52.732697      60.979709      1              188978.79      1.2700867      6623.6646      15760.638     -5261.3652      43.320236     -1032.4998      24349.013     -19838.316      3478.1973      7            
      7200   38.25278       20658.875      2401.2371      23060.113      138.03342     -82.576082      464.15175      32.524587      0.0014389642   0.00144        0.00029519091 -0.0021405339   0.0014389642   0.00029514734 -0.0021428281   7.9321817     -1.4558656     -0.51535769     4.7599299     -24.245559      2.8039818      58.77127       52.736961      60.987004      1              189024.23      1.2697814      6590.7363      15834.861     -5280.9452      45.367402     -1031.4197      24337.832     -19837.557      3468.8558      7.2          
      7400   37.80591       20641.309      2373.1858      23014.495      16.234707     -154.37738     -105.66748      308.74898      0.0014789059   0.00148        0.00069825023 -0.0034244786   0.0014789059   0.00069800657 -0.0034303555   7.1613018     -0.31227662    -1.8287872      9.1128093     -19.50027       0.2262682      58.773617      52.758211      60.908532      1              188864.62      1.2708544      6594.1127      15825.498     -5275.2147      35.843314     -1060.5314      24358.771     -19837.169      3461.0702      7.4          
      7600   38.190372      20630.403      2397.3196      23027.722      234.20515      235.03957     -84.82002       552.39591      0.001518846    0.00152        0.00078375419 -0.0034943245   0.001518846    0.00078344722 -0.0035004439   8.3108628      2.4399852      0.80424465     7.0596658     -22.877598      8.1132459      58.775965      52.762719      60.904263      1              188875.06      1.2707842      6585.2068      15845.58      -5295.2658      41.12844      -1053.2389      24345.185     -19838.193      3453.7532      7.6          
      7800   38.068444      20653.083      2389.6658      23042.749      251.48219      132.18735      206.11049      416.14873      0.0015587845   0.00156        0.0016606722  -0.002752239    0.0015587845   0.0016592948  -0.0027560334   16.362956     -3.4065599     -1.7568592      3.8643462     -19.531039      9.4923425      58.778312      52.808951      60.949617      1              189188.89      1.2686762      6630.1479      15837.506     -5311.893       39.95604      -1065.2233      24360.724     -19838.135      3457.3657      7.8          
      8000   37.705887      20668.574      2366.9071      23035.481     -153.58758     -100.6968      -162.11379     -197.95214      0.0015987214   0.0016         0.00085474358 -0.0022082605   0.0015987214   0.00085437849 -0.0022107024   5.4040385      3.9621622      0.097017852    6.465739      -17.725555      4.367946       58.78066       52.766461      60.982864      1              189147.34      1.2689549      6588.4148      15838.03      -5298.2224      44.433457     -1017.4165      24350.91      -19837.575      3495.9187      8            
      8200   38.142975      20642.068      2394.3443      23036.413     -116.19483     -122.29719     -204.51963     -21.767663      0.0016386567   0.00164       -0.00047524742 -0.0021951631   0.0016386567  -0.00047536039 -0.002197576    5.4720642      3.6847354     -0.56796252     11.621392     -18.368696      10.330205      58.783007      52.696343      60.983665      1              188906.02      1.2705759      6590.144       15847.84      -5298.0064      42.687637     -1057.9127      24354.035     -19836.719      3459.4032      8.2          
      8400   38.139574      20648.251      2394.1309      23042.382     -73.031684      6.3433686      52.346981     -277.7854       0.0016785904   0.00168       -0.0013600889  -0.0014452059   0.0016785904  -0.0013610147  -0.0014462512   10.33325      -5.6204583     -0.65070218     7.160076      -25.167941      8.0938463      58.785354      52.649692      61.0295        1              188888.19      1.2706959      6575.3327      15824.739     -5268.9301      48.027461     -1033.1232      24340.084     -19837.879      3469.0826      8.4          
      8600   37.993027      20631.133      2384.9317      23016.064      195.92868      352.90671      541.72141     -306.8421       0.0017185225   0.00172       -0.001072818   -0.0013057619   0.0017185225  -0.0010733939  -0.0013066152   8.5843733      2.1974958      3.2784799      2.5908385     -18.995794      4.7440256      58.787702      52.664838      61.038023      1              188976.45      1.2701024      6627.2414      15829.877     -5301.4116      43.390668     -1068.8344      24338.423     -19837.554      3432.0347      8.6          
      8800   38.051027      20652.749      2388.5725      23041.321      81.996076      127.64205     -12.083875      130.43005      0.001758453    0.00176       -0.00035394654 -0.0013602201   0.001758453   -0.00035400919 -0.001361146    12.857516      1.291245       0.73350482     9.8153797     -21.048475      5.1244869      58.790049      52.702738      61.034695      1              189109.69      1.2692075      6576.595       15820.291     -5266.3506      43.487864     -1025.2749      24341.514     -19837.513      3478.7257      8.8          
      9000   38.253829      20651.497      2401.303       23052.8        70.968153     -101.21127      39.314474      274.80126      0.0017983819   0.0018        -0.00064388974 -0.0015155137   0.0017983819  -0.00064409712 -0.0015166633   3.0330438     -3.6885571     -4.8517537      9.2427627     -14.891811      9.8065397      58.792397      52.687451      61.025203      1              189032.99      1.2697225      6594.4395      15810.25      -5255.5846      45.913188     -1055.3164      24347.792     -19835.997      3456.4786      9            
      9200   37.718605      20640.363      2367.7054      23008.069      200.52191      152.79705     -9.3844945      458.15318      0.0018383093   0.00184        0.00041512628 -0.0029605814   0.0018383093   0.00041504014 -0.0029649726   4.7552012     -0.72732525    -0.34237392     6.9550027     -16.139378      9.0511505      58.794744      52.743284      60.936884      1              188966.98      1.270166       6574.584       15784.329     -5266.3454      41.091265     -997.06948      24339.533     -19835.759      3506.7046      9.2          
      9400   38.107368      20651.951      2392.1092      23044.06      -54.310354     -298.49861      26.902867      108.66468      0.001878235    0.00188        0.00081344442 -0.0023165477   0.001878235    0.00081311375 -0.002319235    11.36675       1.5325141      0.68833518     11.470373     -17.197256      7.5669654      58.797092      52.764284      60.976246      1              189171.88      1.2687903      6599.8077      15799.356     -5269.8796      43.429095     -1027.6689      24344.684     -19837.777      3479.2383      9.4          
      9600   38.08785       20659.407      2390.884       23050.291     -80.270627      119.17023     -347.56907     -12.413037      0.0019181592   0.00192       -0.00018885934 -0.0020895828   0.0019181592  -0.00018887718 -0.002091769    10.132371      3.8120922      1.3514587      8.2437401     -21.846962      7.9101327      58.799439      52.711441      60.990118      1              189032.96      1.2697227      6601.5177      15805.054     -5282.87        44.328086     -1025.9786      24354.747     -19837.391      3491.3772      9.6          
      9800   37.855966      20631.763      2376.328       23008.091      109.20325     -96.353692      178.26741      245.69603      0.0019580817   0.00196       -0.0018388673  -0.0018120802   0.0019580817  -0.0018405601  -0.001813724    10.786282     -4.9279158      0.32730731     6.2075268     -15.535907      2.6261232      58.801787      52.624451      61.007078      1              188781.02      1.2714172      6563.351       15801.549     -5267.4265      40.643537     -1020.3426      24351.543     -19837.555      3493.6452      9.8          
     10000   38.116731      20659.501      2392.6969      23052.198      108.84745     -83.357915      263.4459       146.45436      0.0019980027   0.002         -0.00066063029 -0.0010396756   0.0019980027  -0.00066084861 -0.0010402164   6.1210068      0.65506861    -1.0977119      2.5850365     -22.450443      0.68267839     58.804134      52.686569      61.054286      1              189157.66      1.2688857      6614.7999      15838.75      -5312.757       38.455475     -1031.1884      24348.044     -19836.603      3480.2532      10           
     10200   37.681222      20666.923      2365.3588      23032.282      232.55899      261.79662      146.16813      289.71222      0.002037922    0.00204       -0.0016279108  -0.0012650178   0.002037922   -0.0016292373  -0.0012658186   10.554909      3.5259762      0.97274652     4.334319      -18.85207       4.9859139      58.806482      52.635572      61.040513      1              188939.48      1.2703509      6617.3349      15828.276     -5301.4332      43.857008     -1020.0316      24335.658     -19836.738      3478.8883      10.2         
     10400   37.640662      20645.392      2362.8127      23008.205      113.24733      161.25844      286.46682     -107.98328      0.0020778398   0.00208       -0.0013286446  -0.0021759754   0.0020778398  -0.001329528   -0.0021783463   15.215729     -3.419414       3.278107       2.635816      -19.42915       8.5942808      58.808829      52.65135       60.984837      1              188831.27      1.2710789      6613.7182      15802.209     -5299.5811      43.196229     -1015.8342      24338.325     -19836.642      3485.8491      10.4         
     10600   38.186187      20648.972      2397.0569      23046.029     -234.38645     -3.5148783     -200.23375     -499.41073      0.002117756    0.00212       -8.6367091e-05 -0.002343444    0.002117756   -8.6370821e-05 -0.0023461942   5.2007367      0.17483129    -5.3787094      5.6485765     -19.411715      5.181391       58.811177      52.716845      60.974602      1              189041.98      1.2696621      6604.9973      15773         -5240.3538      46.434195     -1059.2163      24361.009     -19836.898      3464.8948      10.6         
     10800   38.065208      20643.258      2389.4627      23032.72       7.8678688      246.11697      434.12499     -656.63835      0.0021576706   0.00216       -0.0011388064  -0.0020434058   0.0021576706  -0.0011394554  -0.0020454964   16.050253      2.2692901      3.5385718      4.2454894     -20.932608      2.9425319      58.813524      52.661359      60.99294       1              188907.34      1.270567       6603.4403      15789.76      -5277.2103      38.748391     -1028.0411      24354.557     -19837.997      3488.519       10.8         
     11000   37.73348       20642.563      2368.6392      23011.203     -20.693489      286.74775     -36.049199     -312.77902      0.0021975835   0.0022        -0.00029409398 -0.0026470472   0.0021975835  -0.00029413724 -0.0026505568   3.051116      -2.6836991     -0.71468663     9.6010862     -20.046954      16.238935      58.815872      52.705893      60.956047      1              188960.27      1.2702111      6608.2118      15853.754     -5306.658       39.972074     -1052.039       24337.659     -19838.337      3447.2832      11           
     11200   38.086512      20654.448      2390.8         23045.248     -424.78177     -1028.1496      35.537291     -281.73303      0.0022374949   0.00224       -0.00073626821 -0.0020397593   0.0022374949  -0.00073653939 -0.0020418425   6.7808021      1.4206105      1.4775114     -0.074821676   -21.19234       5.3598521      58.818219      52.682581      60.993163      1              188999.24      1.2699492      6576.8824      15854.793     -5239.7566      39.946381     -1084.3432      24344.102     -19837.175      3422.5834      11.2         
     11400   37.928131      20634.644      2380.858       23015.502      115.34946     -60.061439      129.57675      276.53307      0.0022774047   0.00228       -0.00082656236 -0.002387218    0.0022774047  -0.00082690415 -0.0023900719   12.146197     -0.47245496    -1.1212182      7.35787       -19.237527      4.2568584      58.820567      52.677821      60.971927      1              188923.91      1.2704556      6559.5906      15831.778     -5255.6684      43.900811     -1051.2532      24342.799     -19836.503      3455.0422      11.4         
     11600   37.467899      20663.579      2351.9679      23015.547     -252.47132     -231.83781     -108.306       -417.27016      0.002317313    0.00232        0.00044451903 -0.0026286766   0.002317313    0.00044442026 -0.0026321377   15.148825     -0.49518245    -1.0823126      10.070634     -16.633343      13.19103       58.822914      52.744834      60.957169      1              189126.01      1.269098       6595.9274      15793.468     -5252.9499      42.217158     -1037.2071      24358.689     -19836.565      3484.9162      11.6         
     11800   38.026265      20653.438      2387.0181      23040.456      79.0749        34.364054     -39.824451      242.6851       0.0023572196   0.00236       -0.00014808261 -0.003298128    0.0023572196  -0.00014809357 -0.0033035788   9.4464271      0.15513107    -1.7609132      6.179854      -19.436338      0.37149657     58.825261      52.713591      60.916254      1              188894.65      1.2706524      6596.8382      15835.98      -5281.9511      46.141368     -1038.5058      24331.923     -19836.987      3456.4297      11.8         
     12000   38.016844      20653.164      2386.4267      23039.59      -60.282988     -109.61448      124.12041     -195.3549       0.0023971246   0.0024        -6.5814095e-05 -0.0018410715   0.0023971246  -6.5816261e-05 -0.0018427684   14.877519     -0.41317109    -4.468525       4.5387551     -20.686305      8.409189       58.827609      52.717928      61.005306      1              189193.91      1.2686426      6594.5422      15790.815     -5256.5354      44.168481     -1034.532       24353         -19838.295      3480.173       12           
     12200   37.926698      20622.514      2380.768       23003.282     -45.789859     -81.279632      152.51493     -208.60487      0.002437028    0.00244       -0.0011441777  -0.00099055674  0.002437028   -0.0011448328  -0.00099104767  10.825806      0.38716773     3.8808887      8.505947      -21.620053      0.34845405     58.829956      52.661076      61.057288      1              189158.46      1.2688803      6611.3488      15800.903     -5298.5213      41.126844     -1041.1034      24345.783     -19837.022      3467.6574      12.2         
     12400   38.262984      20646.175      2401.8776      23048.052      10.782902     -45.887306     -127.75623      205.99224      0.0024769299   0.00248       -0.0013657752  -0.0019422485   0.0024769299  -0.0013667087  -0.0019441371   14.511119     -0.73159195     0.52877157     10.098508     -21.269983      9.8494725      58.832304      52.649393      60.999122      1              188943.87      1.2703214      6581.6876      15824.553     -5243.8467      43.319085     -1056.5952      24334.262     -19837.205      3440.4618      12.4         
     12600   37.912885      20657.686      2379.9009      23037.587      5.5347913      20.393766      157.03683     -160.82622      0.0025168301   0.00252       -0.00092547209 -0.0022698778   0.0025168301  -0.0009259006  -0.0022724579   17.8517        1.8422842      3.2108463      9.1017842     -20.262808      9.6647148      58.834651      52.672606      60.979098      1              188972.67      1.2701278      6583.0957      15842.881     -5295.9215      45.000652     -1038.379       24358.208     -19837.198      3482.6305      12.6         
     12800   37.662292      20632.294      2364.1705      22996.465      121.55878      285.54133      36.470272      42.664727      0.0025567288   0.00256       -0.00033953919 -0.0021421098   0.0025567288  -0.00033959685 -0.0021444074   4.4117779     -1.3899573     -3.6597909      2.5077914     -23.249861      13.856696      58.836999      52.703497      60.986907      1              189115.25      1.2691702      6645.5243      15775.247     -5310.7952      41.459512     -1036.9213      24355.276     -19837.497      3480.8584      12.8         
     13000   38.172938      20630.965      2396.2252      23027.191      60.746485     -42.821828      188.4475       36.613784      0.0025966258   0.0026        -0.00015361335 -0.0018464977   0.0025966258  -0.00015362515 -0.0018482046   12.342694     -1.9796976     -0.54629637     6.0496562     -19.905018      13.167941      58.839346      52.713299      61.004974      1              189214.01      1.2685078      6587.9532      15819.178     -5296.7138      42.706947     -1035.1442      24350.816     -19837.83       3477.841       13           
     13200   38.199039      20641.236      2397.8636      23039.1        269.33347      437.05825      18.385379      352.55677      0.0026365213   0.00264       -0.00094264455 -0.0027069378   0.0026365213  -0.00094308912 -0.0027106082   25.34051       1.2201701      2.5172285      3.4137292     -15.787511      8.5004999      58.841694      52.671701      60.952386      1              188909.25      1.2705542      6629.802       15822.482     -5308.9559      38.986739     -1040.1806      24335.361     -19836.259      3458.9212      13.2         
     13400   37.988334      20665.664      2384.6371      23050.301      295.66044      413.24379     -44.76622       518.50377      0.0026764152   0.00268       -0.00048203904 -0.0022169411   0.0026764152  -0.00048215526 -0.0022194022   13.291801      0.66769244    -3.1581353      6.5072101     -21.841612      4.4428608      58.844041      52.695984      60.982334      1              189096.74      1.2692944      6616.7197      15863.899     -5344.0435      41.447478     -1025.9715      24351.135     -19837.523      3487.6409      13.4         
     13600   38.159254      20650.799      2395.3662      23046.165     -187.652       -206.46564     -6.8208759     -349.66949      0.0027163075   0.00272       -0.0018437242  -0.0016327924   0.0027163075  -0.0018454259  -0.0016341269   10.112641     -1.2315145     -2.8710083      5.7734825     -17.686458      5.8834414      58.846389      52.624194      61.018036      1              188957.22      1.2702316      6609.2391      15820.285     -5283.1774      40.197436     -1053.8464      24354.828     -19836.727      3464.2549      13.6         
     13800   37.845606      20641.704      2375.6776      23017.381     -215.95764     -229.50886     -160.96504     -257.39901      0.0027561982   0.00276       -0.0011017796  -0.00047984021  0.0027561982  -0.0011023871  -0.00047995537  21.560162     -0.59708344     4.9691813      9.1673814     -16.463826      2.5451195      58.848736      52.663311      61.088502      1              189323.61      1.2677734      6599.6457      15794.967     -5246.0656      38.70628      -1053.3427      24345.565     -19837.772      3454.45        13.8         
     14000   38.256655      20654.623      2401.4804      23056.104      17.283455     -224.2805      -21.858568      297.98943      0.0027960873   0.0028        -0.00042062801 -0.0022772671   0.0027960873  -0.0004207165  -0.002279864    12.2139       -2.2087226     -2.2804266      3.5995248     -21.178969      6.7123825      58.851084      52.699222      60.978647      1              189119.56      1.2691413      6614.1067      15825.841     -5273.1015      39.234254     -1048.0861      24334.803     -19838.174      3448.5427      14           
     14200   38.0716        20654.682      2389.8639      23044.546     -280.85383     -440.64875      50.838464     -452.75119      0.0028359748   0.00284       -0.00066968501 -0.001992547    0.0028359748  -0.00066990935 -0.0019945348   16.321249      4.100779       1.7291935      2.5031838     -16.552748      0.72035283     58.853431      52.686091      60.996048      1              189133.94      1.2690448      6586.0962      15834.264     -5265.5648      39.749292     -1039.0354      24336.87      -19837.697      3460.1376      14.2         
     14400   38.174958      20619.357      2396.352       23015.709     -392.35618     -658.18138     -38.92013      -479.96703      0.0028758607   0.00288       -0.00087354645 -0.0030057536   0.0028758607  -0.00087392822 -0.00301028     4.2862516     -2.2221078      0.94345159     2.0090307     -22.136052      7.4341707      58.855779      52.675344      60.934123      1              188910.92      1.270543       6586.057       15804.074     -5271.6089      41.643633     -1043.297       24339.717     -19837.229      3459.1905      14.4         
     14600   37.904217      20681.524      2379.3568      23060.881     -323.33438     -319.23448     -235.01546     -415.75318      0.0029157451   0.00292       -0.00031411055 -0.0022670772   0.0029157451  -0.0003141599  -0.0022696509   11.513389     -0.62108511     1.9935182      8.842729      -21.32452       4.253217       58.858126      52.704838      60.979269      1              189164.28      1.2688412      6631.4865      15786.848     -5237.3532      40.328256     -1045.9414      24343.063     -19836.907      3460.2145      14.6         
     14800   37.907306      20658.894      2379.5507      23038.445      134.87721      180.99048      163.36218      60.278949      0.0029556278   0.00296       -7.8514514e-05 -0.0026865685   0.0029556278  -7.8517596e-05 -0.0026901838   15.5895       -0.43833113    -5.1188173      6.8744456     -22.879352      3.6087887      58.860474      52.717259      60.953631      1              189136.85      1.2690253      6601.1158      15840.829     -5318.2367      44.126508     -1017.58        24345.99      -19837.351      3491.0597      14.8         
     15000   37.683032      20659.427      2365.4724      23024.9       -47.928854     -142.99281      234.56122     -235.35497      0.002995509    0.003          5.8631534e-05 -0.0032695007   0.002995509    5.8629815e-05 -0.0032748572   14.535009     -0.061112507    4.0616407      5.0910335     -15.943615      5.3034871      58.862821      52.724489      60.918004      1              189059.77      1.2695427      6599.8626      15844.573     -5264.6841      41.551774     -1052.4093      24328.351     -19837.818      3438.1237      15           
     15200   38.243983      20638.926      2400.6849      23039.611     -459.77423     -645.80402     -426.09298     -307.42568      0.0030353885   0.00304       -0.00031098346 -0.0024309887   0.0030353885  -0.00031103182 -0.0024339484   17.076105      3.8510868     -1.1174529      7.6459038     -21.137109      4.7535644      58.865168      52.705003      60.969252      1              189156.42      1.2688939      6572.288       15828.321     -5253.6453      42.910649     -1064.0505      24349.963     -19836.86       3449.0517      15.2         
     15400   37.888901      20661.338      2378.3954      23039.733      119.43569      47.494897      352.24002     -41.427833      0.0030752665   0.00308       -0.0019902171  -0.0021720967   0.0030752665  -0.0019922002  -0.0021744591   9.064206      -0.72341296    -3.8770681      9.9459587     -14.634         6.6124735      58.867516      52.616471      60.985074      1              188895.23      1.2706485      6625.4969      15823.032     -5274.8765      42.726466     -1062.693       24346.611     -19838.96       3444.9585      15.4         
     15600   38.049797      20654.365      2388.4953      23042.86      -220.88816     -124.69376     -230.75879     -307.21195      0.0031151429   0.00312       -0.0020031832  -0.0011565985   0.0031151429  -0.0020051922  -0.0011572679   13.940909     -5.3613708     -1.2720081      3.4672677     -19.572761      7.6234558      58.869863      52.615788      61.04714       1              189092.55      1.2693225      6576.6459      15800.311     -5227.4395      41.38133      -1057.1357      24356.911     -19836.31       3463.4658      15.6         
     15800   38.169232      20612.548      2395.9926      23008.541      41.5999       -144.83845      96.582779      173.05537      0.0031550177   0.00316       -0.002108842   -0.0016126287   0.0031550177  -0.0021110688  -0.0016139304   11.418956      4.6982196      10.251263     -0.80400442    -21.668063      8.8101209      58.872211      52.610217      61.019268      1              188993.75      1.2699862      6597.2276      15808.743     -5301.7806      36.397462     -1029.9571      24338.54      -19836.623      3471.9603      15.8         
     16000   38.075297      20654.142      2390.096       23044.238      74.872579      101.9458       288.73191     -166.05997      0.0031948909   0.0032        -0.00091937878 -0.0030161335   0.0031948909  -0.00091980166 -0.0030206912   7.023004      -3.3685767     -6.9442315      6.0311716     -15.891063      5.7059675      58.874558      52.672927      60.933489      1              188960.56      1.2702092      6585.3137      15831.005     -5294.2053      46.111751     -1028.3255      24351.491     -19837.248      3485.9174      16           
     16200   37.961329      20665.786      2382.9419      23048.728     -264.59698     -702.99883     -29.516325     -61.275775      0.0032347625   0.00324       -0.0014197841  -0.0021633254   0.0032347625  -0.001420793   -0.0021656688   18.475988      0.44547906    -2.2414336      6.1539509     -20.474957      13.436206      58.876906      52.646545      60.985611      1              189035         1.269709       6622.45        15834.018     -5282.5174      43.131108     -1070.1255      24356.764     -19837.935      3448.704       16.2         
     16400   37.836871      20639.165      2375.1293      23014.294      130.32671     -172.37668     -48.019419      611.37624      0.0032746325   0.00328       -0.00094015538 -0.003121055    0.0032746325  -0.0009405976  -0.0031259357   6.1925741      0.16365237     3.5626747      5.829281      -24.031845      4.4130173      58.879253      52.671832      60.927076      1              188951.81      1.270268       6607.219       15805.763     -5297.6204      43.896936     -1021.541       24338.155     -19836.708      3479.9062      16.4         
     16600   38.081184      20647.786      2390.4655      23038.252      11.245305      140.60506      84.739726     -191.60888      0.003314501    0.00332       -0.0017838686  -0.002090074    0.003314501   -0.0017854616  -0.0020922613   17.235839     -2.2600698     -4.7380262      2.8921066     -16.183792      2.3109451      58.881601      52.62735       60.990088      1              188995.02      1.2699776      6606.3577      15852.789     -5322.4235      44.855099     -1038.7572      24341.758     -19836.793      3466.2076      16.6         
     16800   38.381257      20648.538      2409.302       23057.84       148.1453       119.10387      139.91826      185.41378      0.0033543678   0.00336       -0.0003208621  -0.0025328008   0.0033543678  -0.00032091359 -0.0025360137   20.067203      4.8572837      5.5298574      11.825503     -18.888994      0.18568588     58.883948      52.704482      60.963029      1              189195.59      1.2686313      6595.6869      15822.339     -5306.1275      44.931467     -1018.9113      24348.579     -19837.959      3491.7085      16.8         
     17000   37.900292      20648.178      2379.1105      23027.289      249.34142      95.657181      366.60548      285.76158      0.0033942331   0.0034        -0.001550096   -0.0024363416   0.0033942331  -0.0015512986  -0.0024393143   16.111921     -0.54831478    -5.3015537      4.5914554     -19.157424      4.8321942      58.886296      52.639675      60.968924      1              188988.76      1.2700197      6636.5449      15824.056     -5325.5337      44.661868     -1047.7525      24352.762     -19836.56       3468.449       17           
     17200   38.068135      20636.099      2389.6464      23025.746      196.57503      295.46827      167.1954       127.06144      0.0034340967   0.00344       -0.0023461972  -0.0017683246   0.0034340967  -0.0023489539  -0.0017698899   22.654526     -0.58120349     1.6219407      1.9483958     -20.683762      5.2354849      58.888643      52.597703      61.009752      1              188972.06      1.2701319      6611.0835      15811.914     -5268.1486      43.851858     -1069.8495      24344.782     -19837.534      3437.3986      17.2         
     17400   38.115081      20666.613      2392.5933      23059.207      93.054239     -717.16367      106.03246      890.29392      0.0034739588   0.00348       -0.0017946097  -0.0018755659   0.0034739588  -0.001796222   -0.001877327    9.0501941     -3.5552462      1.6694596      4.6805888     -15.710874      8.5443724      58.890991      52.626784      61.003198      1              189063.76      1.2695158      6590.7703      15855.675     -5273.3058      38.65056      -1055.744       24347.875     -19837.308      3454.8234      17.4         
     17600   37.8901        20658.175      2378.4706      23036.646     -371.1116      -593.60028     -256.7892      -262.94532      0.0035138193   0.00352       -0.0014083113  -0.001947345    0.0035138193  -0.0014093039  -0.0019492436   20.940908      4.4078624      1.8960912      1.6300607     -12.832487      9.1169694      58.893338      52.64715       60.998811      1              189130.86      1.2690654      6606.2507      15822.539     -5309.4208      39.71119      -996.52408      24333.037     -19837.417      3499.0957      17.6         
     17800   37.881381      20657.98       2377.9233      23035.904     -470.36151     -618.11063     -335.99521     -456.97868      0.0035536782   0.00356       -0.00064232525 -0.0026308938   0.0035536782  -0.00064253162 -0.0026343606   12.75007      -6.3214341     -1.0919373      4.4574186     -16.60512       5.6554552      58.895686      52.687534      60.957034      1              189153.85      1.2689112      6593.0068      15796.955     -5225.6207      41.284232     -1051.0789      24341.445     -19838.011      3452.355       17.8         
     18000   38.08313       20671.799      2390.5877      23062.387      40.965801     -275.49521     -23.186903      421.57952      0.0035935355   0.0036        -0.00059853798 -0.0031317873   0.0035935355  -0.00059871718 -0.0031367016   22.512115      5.5334182      0.54831563     7.9268394     -20.214841      6.4211749      58.898033      52.689842      60.92642       1              189074.67      1.2694426      6591.5458      15838.845     -5276.0923      42.140634     -1036.1009      24348.968     -19837.507      3475.3602      18           
     18200   37.67642       20651.848      2365.0574      23016.906      168.28329      279.4942       351.20298     -125.84731      0.0036333912   0.00364       -0.00091437661 -0.0027467296   0.0036333912  -0.0009147949  -0.0027505088   19.417492     -1.2023321     -2.6872565      14.317948     -21.107021      5.3562024      58.90038       52.673191      60.949954      1              189095.46      1.269303       6591.4569      15803.857     -5269.4704      42.593982     -1020.8265      24341.252     -19837.015      3483.4106      18.2         
     18400   37.924129      20662.696      2380.6067      23043.303     -217.68491      74.506906     -359.49133     -368.07031      0.0036732454   0.00368       -0.0018150951  -0.0021443057   0.0036732454  -0.0018167444  -0.0021466081   15.082631     -1.2769416      2.329275       8.205389      -11.927605      8.3338623      58.902728      52.625704      60.986773      1              189046.65      1.2696308      6632.7851      15820.503     -5309.6748      41.323628     -1028.5421      24342.726     -19836.424      3477.7599      18.4         
     18600   38.071949      20668.867      2389.8858      23058.753     -43.812085     -318.86603     -67.924527      255.3543       0.0037130979   0.00372       -0.0018429338  -0.0021077968   0.0037130979  -0.0018446341  -0.0021100214   19.378898     -3.2612873     -0.026569707    5.6542725     -25.556768      4.8127779      58.905075      52.624236      60.989004      1              189055.83      1.2695691      6607.711       15788.098     -5273.3991      46.578489     -1006.6262      24343.6       -19837.095      3499.8788      18.6         
     18800   37.876925      20652.349      2377.6436      23029.992     -318.08403     -518.37747     -230.3797      -205.49493      0.0037529489   0.00376       -0.00054993433 -0.0025795826   0.0037529489  -0.0005500856  -0.0025829155   16.436324      5.535529      -1.5687339      9.6368864     -21.8011        5.9633669      58.907423      52.692405      60.96017       1              189218.77      1.2684759      6551.8128      15831.368     -5272.5697      41.952126     -997.21564      24333.245     -19836.243      3499.786       18.8         
     19000   37.845332      20637.826      2375.6605      23013.486      229.93991     -107.51027      523.7135       273.61651      0.0037927982   0.0038        -0.0015353769  -0.0025306899   0.0037927982  -0.0015365568  -0.0025338975   26.476333     -5.0812895     -0.42025657     5.4900226     -19.832512      9.9958071      58.90977       52.640451      60.963158      1              189049         1.269615       6585.7468      15831.074     -5292.1613      37.242492     -1033.4484      24345.608     -19836.236      3475.9234      19           
     19200   38.386599      20642.877      2409.6373      23052.514     -8.8625979     -158.37594      91.062517      40.725626      0.003832646    0.00384       -0.00094558795 -0.0027717847   0.003832646   -0.0009460353  -0.0027756332   15.11342       4.3695808      1.2969366      6.8713499     -20.414494      7.9314415      58.912118      52.671545      60.948423      1              189122.49      1.2691216      6603.7477      15795.007     -5275.6456      41.146685     -1045.0863      24360.16      -19836.453      3478.6208      19.2         
     19400   38.299661      20636.182      2404.18        23040.362      29.102732     -165.03248     -137.68019      390.02087      0.0038724922   0.00388       -0.00033595014 -0.0033741525   0.0038724922  -0.00033600659 -0.0033798578   12.770084     -0.15498973    -2.185225       2.0882022     -18.050905      2.479393       58.914465      52.703686      60.911607      1              189131.12      1.2690637      6607.2635      15855.497     -5327.5154      43.835194     -1042.4723      24336.353     -19836.778      3457.1021      19.4         
     19600   37.916773      20640.215      2380.145       23020.36      -54.428801     -128.61896      198.97896     -233.6464       0.0039123368   0.00392       -0.0010334269  -0.002688461    0.0039123368  -0.0010339612  -0.0026920814   25.493889      1.7313617      1.7926095      11.612859     -18.181948      7.8889433      58.916813      52.666914      60.953515      1              189136.73      1.2690261      6616.703       15795.26      -5263.0207      42.336158     -1056.1099      24342.327     -19837.28       3448.9372      19.6         
     19800   38.154846      20660.969      2395.0895      23056.058     -30.471591     -80.548889     -296.62869      285.76281      0.0039521798   0.00396       -0.00058246641 -0.0037172365   0.0039521798  -0.00058263611 -0.0037241626   13.032395     -2.1016598     -2.3953095      3.5642704     -20.095509      7.5000922      58.91916       52.69069       60.890639      1              189034.45      1.2697127      6605.9532      15827.814     -5287.0573      39.720105     -1037.5082      24349.448     -19837.402      3474.5386      19.8         
     20000   37.960192      20625.302      2382.8705      23008.172     -397.62644     -419.52165     -667.21146     -106.1462       0.0039920213   0.004         -0.0013722005  -0.0022347328   0.0039920213  -0.0013731428  -0.0022372336   14.458934     -1.4161542     -1.8328187      7.7871421     -17.806605      2.0100003      58.921508      52.649054      60.981246      1              189173.68      1.2687782      6629.1151      15839.273     -5302.4797      41.136166     -1072.5049      24326.742     -19835.98       3418.2571      20           
     20200   38.14714       20636.641      2394.6058      23031.247     -373.50424     -737.37837     -335.71355     -47.420809      0.0040318611   0.00404       -0.0014448334  -0.0020061487   0.0040318611  -0.0014458781  -0.0020081637   23.53049      -0.12975979     2.9135763      10.45972      -19.894328      8.960249       58.923855      52.645225      60.995217      1              189210.8       1.2685293      6584.3395      15806.006     -5279.5836      46.815476     -1038.2875      24355.416     -19838.065      3479.0639      20.2         
     20400   37.995472      20665.806      2385.0851      23050.891     -38.104853     -649.39913      129.20655      405.87802      0.0040716994   0.00408       -0.0013896729  -0.0033413214   0.0040716994  -0.0013906394  -0.0033469161   17.543291     -2.0114843     -0.037159481    5.5477317     -19.343345      6.9111002      58.926203      52.648133      60.913614      1              188975.63      1.2701079      6614.2113      15861.394     -5293.0773      40.99766      -1055.3033      24334.903     -19837.318      3442.281       20.4         
     20600   37.64002       20646.78       2362.7724      23009.552     -43.099332     -338.55419      28.222495      181.0337       0.004111536    0.00412       -0.00081648159 -0.0024680414   0.004111536   -0.00081681509 -0.002471092    22.179346      1.0452486      1.4493629      2.3319343     -20.221509      8.8300732      58.92855       52.678352      60.966987      1              189257.31      1.2682175      6565.1325      15789.354     -5241.3952      44.229988     -1016.1105      24342.253     -19836.684      3489.4586      20.6         
     20800   38.284249      20659.099      2403.2125      23062.311      126.4405      -237.38573      269.43159      347.27563      0.0041513711   0.00416       -0.0012274842  -0.0033851048   0.0041513711  -0.0012282382  -0.0033908472   20.926679      0.94262266    -4.2961177      4.2852722     -17.822561      11.361747      58.930898      52.656684      60.910938      1              189013.07      1.2698563      6611.1451      15832.099     -5311.1751      39.918798     -1029.7378      24354.126     -19837.277      3487.1113      20.8         
     21000   37.937287      20651.26       2381.4327      23032.693      309.73036      183.02003      125.47659      620.69446      0.0041912046   0.0042         0.00021049723 -0.003898037    0.0041912046   0.00021047508 -0.0039056542   21.68083      -4.100095       0.8909574      3.7342708     -21.148966      8.7113318      58.933245      52.732496      60.879589      1              189195.32      1.2686331      6561.5013      15831.234     -5312.1955      45.107213     -981.54794      24345.284     -19838.123      3525.6128      21           
     21200   37.906879      20637.944      2379.5239      23017.468     -151.28789     -332.87872      159.44823     -280.43319      0.0042310365   0.00424       -0.0008754101  -0.003499041    0.0042310365  -0.00087579349 -0.0035051769   29.969817      8.0191173     -0.90361075     4.4828553     -16.746774      3.5879829      58.935593      52.675245      60.903975      1              189073.15      1.2694528      6559.4005      15808.551     -5252.7095      40.593582     -1023.2141      24343.083     -19837.761      3482.1086      21.2         
     21400   38.418076      20658.4        2411.6132      23070.013      12.957768     -116.82216      154.62309      1.0723722      0.0042708669   0.00428       -0.0019691445  -0.0026902934   0.0042708669  -0.0019710858  -0.0026939188   19.048329     -0.35124366     2.5876712      3.6059238     -18.171741      6.0327177      58.93794       52.617582      60.953403      1              189026.98      1.2697629      6563.8643      15820.304     -5262.4243      43.316631     -1009.8721      24340.397     -19837.186      3493.3397      21.4         
     21600   37.760455      20660.428      2370.3325      23030.76       184.20991      281.44315     -90.866377      362.05295      0.0043106956   0.00432       -0.0023431931  -0.0023408089   0.0043106956  -0.0023459427  -0.0023435529   13.446023     -2.2596084     -1.4687306      2.659433      -16.336151      4.3968973      58.940287      52.597862      60.974763      1              189029.88      1.2697434      6590.0895      15807.648     -5257.0832      43.104864     -1030.6569      24345.862     -19838.536      3476.6691      21.6         
     21800   37.825416      20654.486      2374.4103      23028.897     -131.47941     -208.42219     -181.11533     -4.9007127      0.0043505227   0.00436       -0.0016027342  -0.0023497867   0.0043505227  -0.00160402    -0.0023525518   22.26685      -3.7555594      3.3191846      6.6449137     -18.781182      3.0385063      58.942635      52.6369        60.974214      1              189176.01      1.2687626      6592.7168      15826.45      -5277.9826      44.586193     -1035.5212      24342.726     -19838.489      3468.7157      21.8         
     22000   38.180996      20681.597      2396.731       23078.328     -136.86987     -481.45978     -245.24803      316.0982       0.0043903483   0.0044        -0.0012390961  -0.0024936226   0.0043903483  -0.0012398644  -0.0024967369   18.816021      2.1030433     -7.1752809      4.9717388     -23.668975      5.8936083      58.944982      52.656071      60.965424      1              189225.16      1.268433       6615.1615      15839.679     -5266.7497      43.335696     -1056.0308      24342.998     -19836.796      3450.1709      22           
     22200   37.97626       20668.847      2383.8792      23052.727     -154.84167     -233.28131     -148.67725     -82.566443      0.0044301723   0.00444       -0.0014405859  -0.002829266    0.0044301723  -0.0014416246  -0.0028332759   28.639963     -0.13881721     5.4689407      12.918714     -19.142806      6.5310704      58.94733       52.645449      60.94491       1              189130.86      1.2690654      6566.7524      15841.356     -5269.6239      44.333787     -1022.7065      24345.568     -19836.833      3486.0286      22.2         
     22400   37.878704      20644.243      2377.7553      23021.998     -17.444605     -357.04259     -83.693558      388.40233      0.0044699947   0.00448       -0.0019565412  -0.0034490286   0.0044699947  -0.0019584578  -0.0034549902   26.131297      5.076952      -3.4263804      5.755785      -17.472206      2.4848666      58.949677      52.618247      60.907031      1              188923.18      1.2704605      6626.6176      15796.822     -5272.9639      41.028519     -1045.9492      24336.117     -19837.429      3452.7388      22.4         
     22600   38.334373      20640.32       2406.3589      23046.679      246.14121     -346.80554      687.69029      397.53889      0.0045098155   0.00452       -0.0014036101  -0.0025257579   0.0045098155  -0.0014045961  -0.002528953    16.673291     -8.5674215      0.37304965     6.8509785     -20.575947      9.9201414      58.952025      52.647398      60.963459      1              189210.5       1.2685313      6625.4942      15793.034     -5324.9019      44.333698     -1014.8805      24353.879     -19836.638      3502.3601      22.6         
     22800   38.140704      20665.897      2394.2018      23060.099     -353.10533     -459.44824      40.920022     -640.78778      0.0045496347   0.00456       -0.0012543088  -0.0028584257   0.0045496347  -0.0012550961  -0.0028625188   28.524835      5.7231461      5.3309293      9.005863      -18.587876      2.186809       58.954372      52.655269      60.943128      1              189183.21      1.2687143      6593.4647      15818.992     -5255.6031      46.133791     -1050.3906      24348.465     -19835.166      3462.909       22.8         
     23000   38.016729      20642.077      2386.4195      23028.497      179.15145     -27.899527      141.81646      423.53743      0.0045894523   0.0046        -0.0018525622  -0.0041271733   0.0045894523  -0.0018542804  -0.0041357136   19.191917     -4.1368488     -7.1489         3.567442      -19.618778      3.7983851      58.95672       52.623729      60.865584      1              188836.84      1.2710414      6570.9042      15835.485     -5271.9121      44.966421     -1031.2598      24331.757     -19837.864      3462.6332      23           
     23200   38.320742      20652.319      2405.5033      23057.822     -99.247954     -472.94986      153.74826      21.457742      0.0046292684   0.00464       -0.00086378833 -0.0033741442   0.0046292684  -0.00086416161 -0.0033798495   22.395672      1.3204553      3.9007538      4.5563084     -24.256         6.3232196      58.959067      52.675858      60.911608      1              189174.37      1.2687736      6577.7828      15813.845     -5225.8806      40.820189     -1055.0013      24338.576     -19837.822      3445.7519      23.2         
     23400   37.771811      20662.968      2371.0453      23034.014     -334.77329     -618.7464      -86.33857      -299.23489      0.0046690828   0.00468       -0.00086018434 -0.0027524816   0.0046690828  -0.00086055451 -0.0027562766   19.631104      1.6380523     -5.7531926      5.3438855     -17.686669      6.2734035      58.961415      52.676048      60.949603      1              189300.59      1.2679276      6570.687       15824.045     -5258.5396      42.290088     -1016.8482      24338.4       -19837.065      3484.4862      23.4         
     23600   37.618859      20665.668      2361.4441      23027.112      1.5718241     -55.404635     -279.42857      339.54867      0.0047088957   0.00472       -0.0013924388  -0.0025967874   0.0047088957  -0.0013934091  -0.0026001649   25.114441      0.61768444     5.8654943      7.9329122     -14.876748      10.213158      58.963762      52.647987      60.959118      1              189236.82      1.2683549      6602.5951      15805.52      -5283.9211      42.112694     -1013.8659      24350.005     -19836.777      3499.3617      23.6         
     23800   38.867511      20628.694      2439.8255      23068.52      -127.59007     -240.06676     -181.27623      38.572786      0.004748707    0.00476       -0.0024934839  -0.0018635468   0.004748707   -0.0024965978  -0.0018652854   15.850315     -2.4045876     -0.74296133     4.1987536     -24.396994     -0.1496885      58.96611       52.589938      61.003932      1              189174.66      1.2687716      6570.684       15800.264     -5250.3314      37.567501     -1035.6614      24342.283     -19836.112      3470.51        23.8         
     24000   37.496602      20657.239      2353.7697      23011.009     -216.92072     -280.22773     -440.38168      69.847232      0.0047885167   0.0048        -0.0025160393  -0.0019405581   0.0047885167  -0.0025192099  -0.0019424434   30.467002     -1.5619141     -0.45155739     4.9430599     -15.023207      9.7390956      58.968457      52.588749      60.999226      1              189163.32      1.2688477      6591.2346      15835.221     -5251.5334      42.147597     -1063.2545      24339.787     -19836.363      3440.1695      24           
     24200   38.09833       20643.518      2391.5418      23035.06      -300.39232     -587.17329     -317.95247      3.9488094      0.0048283249   0.00484       -0.00091008299 -0.0025871482   0.0048283249  -0.00091049736 -0.0025905007   27.897894     -1.7993418      0.3316126      1.0838201     -24.696627      4.5758016      58.970805      52.673417      60.959707      1              189352.67      1.2675789      6587.2814      15841.134     -5270.9254      40.564465     -1045.8963      24328.749     -19837.389      3445.4639      24.2         
     24400   38.163204      20662.35       2395.6142      23057.964     -38.106331     -359.15776      344.52666     -99.687901      0.0048681314   0.00488       -0.00050377214 -0.0033300619   0.0048681314  -0.00050389907 -0.0033356189   27.470346      4.5342285     -1.9327282      11.494176     -16.06878       7.2736526      58.973152      52.694839      60.914302      1              189296.11      1.2679576      6568.5696      15804.601     -5257.727       40.807901     -998.02142      24341.093     -19836.974      3506.0979      24.4         
     24600   37.953798      20628.808      2382.4691      23011.277     -355.94391     -261.5838      -278.48948     -527.75846      0.0049079364   0.00492       -0.00074438232 -0.0027410775   0.0049079364  -0.00074465951 -0.0027448411   26.461933      2.2207285      0.91467335     4.5726924     -15.266291      6.2184227      58.9755        52.682153      60.9503        1              189369.92      1.2674634      6563.0537      15823.721     -5278.1177      41.085374     -1021.2649      24337.305     -19836.974      3479.0661      24.6         
     24800   37.750802      20667.773      2369.7265      23037.499     -85.568063      23.009742     -541.59518      261.88125      0.0049477397   0.00496       -0.00094872913 -0.0038558787   0.0049477397  -0.00094917945 -0.0038633318   13.7898       -4.9148883     -2.0275401      5.2254785     -14.577249      4.1592546      58.977847      52.67138       60.882165      1              189127.07      1.2690909      6604.2883      15847.09      -5297.1231      43.769212     -1043.0695      24350.458     -19837.64       3469.7481      24.8         
     25000   38.158707      20661.549      2395.3319      23056.881     -296.98973     -728.85229      69.404677     -231.52158      0.0049875415   0.005         -0.0010344908  -0.003333645    0.0049875415  -0.0010350262  -0.0033392139   14.466109      4.2918525     -0.90813221     2.1398119     -20.455434      5.344078       58.980194      52.666858      60.914083      1              189217.51      1.2684843      6581.0162      15824.032     -5271.8774      42.887251     -1040.2354      24362.973     -19837.247      3485.4907      25           
     25200   38.175302      20639.763      2396.3736      23036.137      18.521551     -156.819        309.2672      -96.883551      0.0050273417   0.00504       -0.0019049266  -0.0029182886   0.0050273417  -0.0019067433  -0.0029225551   22.891695     -0.51408211     1.7824357      5.8795396     -24.410538     -0.89905647     58.982542      52.620968      60.939469      1              189138.95      1.2690111      6594.1978      15798.928     -5272.5247      40.57658      -1026.427       24342.721     -19837.709      3478.5854      25.2         
     25400   37.828286      20632.122      2374.5904      23006.712     -72.437709     -191.79542      250.31128     -275.82898      0.0050671403   0.00508       -0.0011630629  -0.0028101987   0.0050671403  -0.0011637398  -0.0028141547   24.343194     -6.6984879      1.2387035      8.9806417     -17.196143      9.2672398      58.984889      52.66008       60.946075      1              189307.59      1.2678807      6590.687       15831.6       -5290.5555      38.028204     -1036.2824      24335.842     -19837.197      3462.3624      25.4         
     25600   38.086716      20650.187      2390.8128      23041         -57.862472     -430.81275      126.88739      130.33795      0.0051069374   0.00512       -0.00095570618 -0.0031685443   0.0051069374  -0.00095616315 -0.0031735748   30.156281      6.8401755     -1.6494971      10.700901     -16.914186      7.0459452      58.987237      52.671012      60.924174      1              189286.38      1.2680228      6596.3444      15811.128     -5309.0462      41.802852     -1002.5186      24349.085     -19836.608      3509.9585      25.6         
     25800   37.936263      20669.173      2381.3685      23050.542      425.89477     -30.96025       843.36916      465.27541      0.0051467328   0.00516       -0.0015385639  -0.0013853914   0.0051467328  -0.0015397487  -0.0013863519   27.576945     -6.2552524      1.9313064      4.5872351     -15.849325      5.5338793      58.989584      52.640283      61.033156      1              189521.89      1.2664471      6625.8505      15844.032     -5341.1296      40.445285     -1017.2275      24354.636     -19837.433      3499.9752      25.8         
     26000   37.736123      20659.047      2368.8051      23027.852     -203.86462     -645.7523       59.412782     -25.254345      0.0051865267   0.0052        -0.0019444211  -0.0036202093   0.0051865267  -0.001946314   -0.0036267781   23.745083      5.46779       -0.30845896     2.0158708     -18.494912      5.0030838      58.991932      52.618886      60.896569      1              189028.41      1.2697532      6593.0786      15829.436     -5245.697       38.992777     -1079.0728      24358.681     -19836.372      3443.236       26           
     26200   37.966058      20631.987      2383.2388      23015.226     -172.97384     -94.21181      -310.07074     -114.63898      0.005226319    0.00524       -0.0023616437  -0.003420715    0.005226319   -0.0023644368  -0.003426579    25.815828     -4.7447324     -4.2500343      9.7856116     -16.512338      5.1896462      58.994279      52.596889      60.908762      1              188994.74      1.2699794      6591.539       15775.663     -5261.577       41.214555     -1016.1849      24337.922     -19836.589      3485.148       26.2         
     26400   38.344205      20651.465      2406.9761      23058.441     -234.57375     -241.44445     -356.00949     -106.26732      0.0052661097   0.00528       -0.0018249032  -0.0020364719   0.0052661097  -0.0018265704  -0.0020385483   28.080086     -0.10912171     3.7960599      5.2003978     -22.264792      7.4073365      58.996627      52.625187      60.993364      1              189366.61      1.2674855      6619.4271      15851.577     -5338.372       41.52682      -1036.615       24350.532     -19836.611      3477.3059      26.4         
     26600   37.772678      20663.247      2371.0997      23034.347     -442.45642     -522.59097     -574.78343     -229.99488      0.0053058988   0.00532       -0.0019770423  -0.0028740678   0.0053058988  -0.0019789992  -0.0028782059   24.804007      2.3810588     -0.84290361     2.076393      -23.204375      7.506932       58.998974      52.617166      60.942172      1              189186.37      1.2686931      6558.1543      15821.696     -5242.0821      41.500796     -1026.9578      24349.717     -19838.781      3483.9781      26.6         
     26800   37.599107      20613.775      2360.2042      22973.979      42.796019     -182.53797      58.097971      252.82806      0.0053456863   0.00536       -0.0020975026  -0.0032877743   0.0053456863  -0.0020997054  -0.0032931909   35.542629     -2.6904817      1.6342176      7.6683885     -20.470939      7.5071799      59.001322      52.610815      60.916887      1              189092.57      1.2693224      6582.1557      15803.349     -5287.2975      37.156476     -1027.6516      24343.061     -19836.998      3478.4115      26.8         
     27000   37.49467       20666.393      2353.6484      23020.041     -42.123761     -225.56666      251.87125     -152.67587      0.0053854723   0.0054        -0.0016759557  -0.0030946949   0.0053854723  -0.0016773616  -0.0030994934   22.942503      4.5823691     -0.79571159     5.5718634     -19.085443      1.4178305      59.003669      52.633039      60.928687      1              189216.62      1.2684902      6597.7013      15836.151     -5274.1923      45.42869      -1045.9503      24344.106     -19836.851      3461.3043      27           
     27200   38.206495      20655.65       2398.3317      23053.982      81.00874      -160.1882       319.91589      83.298528      0.0054252566   0.00544       -0.0025986391  -0.0032888866   0.0054252566  -0.0026020214  -0.0032943068   20.728159     -2.6880635     -1.2640607      0.62830041    -19.652275      5.9741497      59.006017      52.584394      60.916819      1              189012.44      1.2698605      6626.8971      15794.617     -5286.1586      43.278638     -1029.2011      24343.251     -19837.033      3477.0165      27.2         
     27400   37.789617      20659.006      2372.1631      23031.169     -329.66726     -437.05474     -214.89904     -337.048        0.0054650394   0.00548       -0.0018792941  -0.0026713666   0.0054650394  -0.0018810622  -0.0026749411   30.972021     -0.26414435     1.1872338      5.0856369     -16.450299      4.1960673      59.008364      52.622319      60.95456       1              189273.48      1.2681092      6590.5542      15803.406     -5265.7512      45.779078     -1014.1807      24336.116     -19836.918      3485.0176      27.4         
     27600   37.836194      20649.817      2375.0869      23024.904      19.028041      175.76237     -102.07426     -16.603985      0.0055048206   0.00552       -0.0019222182  -0.0034268802   0.0055048206  -0.001924068   -0.0034327654   25.065321      0.099587471   -1.1695538      8.9955419     -16.404063      8.6292115      59.010712      52.620056      60.908385      1              189129.49      1.2690747      6618.3572      15804.297     -5284.4679      42.199882     -1014.6492      24321.234     -19837.154      3469.4308      27.6         
[...]
    744000   37.947595      21407.609      2382.0798      23789.689     -1009.4641     -3204.2513     -41.244772      217.10366      0.13871792     0.1488        -0.047125163   -0.051398319    0.13871792    -0.04827172    -0.052766293    343.49098     -2.1595308      1.2961681      4.2083851     -19.605382      13.243309      67.419351      50.236894      57.976475      1              196362.77      1.2223266      6638.5966      15960.672     -5220.5878      49.003938     -625.75986      24441.661     -19835.978      3979.9238      744          
    744200   37.889633      21357.507      2378.4414      23735.949     -1347.3085     -3434.7511     -210.32802     -396.84636      0.13875274     0.14884       -0.046844146   -0.052415654    0.13875274    -0.047976848   -0.053839326    339.0546      -0.68634066    -0.59506599     7.546447      -17.407167      14.188495      67.421698      50.251709      57.914297      1              196216.86      1.2232356      6630.4294      15885.828     -5200.907       45.869726     -586.69242      24418.497     -19835.518      3996.287       744.2        
    744400   38.018883      21386.456      2386.5547      23773.011     -771.86579     -3200.2478      213.04091      671.60958      0.13878755     0.14888       -0.047075557   -0.052543931    0.13878755    -0.048219662   -0.053974708    335.83838      3.6347795     -0.074397305    1.7823608     -19.798008      6.897368       67.424046      50.239509      57.906457      1              196149.49      1.2236557      6633.2015      15965.221     -5288.4917      50.919332     -555.06832      24415.796     -19835.122      4025.6062      744.4        
    744600   37.973317      21405.976      2383.6944      23789.67      -977.20631     -3190.5543      180.10938      78.825985      0.13882237     0.14892       -0.047812814   -0.052271238    0.13882237    -0.04899364    -0.053686934    339.274       -2.7623809     -3.7140603      2.7282966     -15.030676      13.280854      67.426393      50.20064       57.923124      1              196060.97      1.2242081      6615.5174      15931.195     -5223.3058      52.918752     -547.37025      24412.727     -19835.706      4029.6507      744.6        
    744800   37.859678      21367.005      2376.561       23743.566     -873.17901     -2995.0501      566.97378     -191.46076      0.13885719     0.14896       -0.047228971   -0.052029228    0.13885719    -0.048380668   -0.053431609    337.39523     -0.24618481     5.4991174      3.4827486     -21.091848      16.068183      67.428741      50.231421      57.937915      1              196238.12      1.223103       6588.6304      15894.95      -5209.7922      47.150405     -541.04487      24422.383     -19835.272      4046.0664      744.8        
    745000   37.983491      21390.597      2384.3331      23774.93      -1161.6046     -3485.2509      108.70795     -108.27089      0.138892       0.149         -0.047023303   -0.05197046     0.138892      -0.048164828   -0.053369617    343.71101     -3.2969264     -2.6141376      11.773469     -17.680275      14.817062      67.431088      50.242264      57.941507      1              196299.48      1.2227207      6608.9424      15938.426     -5208.7593      42.661561     -584.75164      24429.43      -19835.353      4009.326       745          
    745200   37.938935      21406.403      2381.5362      23787.939     -1083.8965     -3354.1164     -136.60563      239.03258      0.13892681     0.14904       -0.046924147   -0.051891561    0.13892681    -0.048060785   -0.053286396    347.59573      5.6022046     -0.87805365     5.364417      -18.386928      12.63614       67.433436      50.247492      57.946329      1              196343.08      1.2224492      6625.6781      15949.665     -5234.877       45.941776     -568.36698      24423.556     -19835.194      4019.9945      745.2        
    745400   38.002524      21430.232      2385.5278      23815.76      -1033.0411     -3396.8985      236.63317      61.142173      0.13896162     0.14908       -0.047843095   -0.050292508    0.13896162    -0.049025441   -0.051601245    339.1568      -1.5828317     -0.50133501     4.3337857     -20.87426       12.520121      67.435783      50.199043      58.044059      1              196491.43      1.2215262      6625.9193      15926.67      -5256.4839      49.287473     -521.84568      24442.068     -19835.383      4084.8396      745.4        
    745600   37.752956      21409.972      2369.8617      23779.833     -1241.6002     -2975.2385     -421.42156     -328.14062      0.13899643     0.14912       -0.048791324   -0.049484049    0.13899643    -0.050021813   -0.050750335    340.27593      0.88384025    -1.516854       2.4716256     -16.08545       17.936065      67.43813       50.149051      58.093471      1              196469.69      1.2216614      6639.1897      15925.384     -5231.3506      48.226446     -558.65291      24423.54      -19836.365      4028.5218      745.6        
    745800   37.958794      21401.065      2382.7828      23783.848     -952.61348     -3089.6305     -138.93503      370.72507      0.13903124     0.14916       -0.049178247   -0.049747866    0.13903124    -0.050428665   -0.051027925    338.31671     -0.065688299    5.5029941      7.4360615     -16.653617      11.012204      67.440478      50.128652      58.077347      1              196342.1       1.2224553      6615.5063      15951.536     -5255.2901      49.772421     -550.45924      24425.984     -19835.985      4039.5402      745.8        
    746000   38.507689      21415.672      2417.2385      23832.91      -1378.854      -3842.5847     -124.5019      -169.47526      0.13906605     0.1492        -0.048501711   -0.051195454    0.13906605    -0.049717391   -0.052552459    332.0658      -2.081005      -4.1550518      12.057077     -17.578498      15.103328      67.442825      50.16432       57.988873      1              196189.32      1.2234073      6632.3131      15957.792     -5209.0984      47.427987     -588.39541      24411.154     -19835.521      3987.2377      746          
    746200   37.661857      21412.981      2364.1432      23777.124     -949.17839     -3297.2375     -34.894951      484.59731      0.13910085     0.14924       -0.04775306    -0.051757162    0.13910085    -0.048930887   -0.053144651    336.40935     -1.3058947      0.45117954     4.5440521     -21.087371      13.839146      67.445173      50.20379       57.954543      1              196234.27      1.223127       6624.9892      15908.906     -5208.3054      50.813022     -561.08514      24432.323     -19834.66       4036.578       746.2        
    746400   38.125014      21391.867      2393.2169      23785.083     -1217.8663     -3458.0283     -235.27628      39.705803      0.13913566     0.14928       -0.047524281   -0.050179218    0.13913566    -0.048690664   -0.051481963    339.2237       3.8768996      1.2129818      4.1041941     -19.766483      7.7813553      67.44752       50.215852      58.050983      1              196614.89      1.2207592      6617.9384      15927.469     -5231.3466      47.77947      -553.70568      24419.712     -19835.98       4030.026       746.4        
    746600   38.028014      21412.205      2387.1279      23799.333     -1077.3056     -3305.4155      144.56845     -71.069805      0.13917046     0.14932       -0.048713314   -0.050600758    0.13917046    -0.049939805   -0.051925872    339.41139     -0.25281571     0.39125051     10.444266     -19.695273      7.9553619      67.449868      50.153164      58.02522       1              196289.12      1.2227852      6632.7619      15933.038     -5188.9475      48.89724      -585.57057      24407.352     -19835.327      3986.4548      746.6        
    746800   37.924536      21379.8        2380.6323      23760.433     -986.25369     -3370.9509      400.49767      11.692113      0.13920527     0.14936       -0.048335698   -0.05082194     0.13920527    -0.049542931   -0.052158868    342.93555     -2.0019153     -1.2406333      3.078096      -23.047349      11.632661      67.452215      50.173073      58.011702      1              196328.13      1.2225423      6650.7657      15954.753     -5270.2918      48.636881     -585.37426      24416.432     -19835.122      3995.9361      746.8        
    747000   38.111152      21414.471      2392.3467      23806.817     -1188.0688     -3146.6148     -188.2707      -229.32092      0.13924007     0.1494        -0.047532781   -0.050117728    0.13924007    -0.048699589   -0.051417226    338.80227     -0.9633609     -2.6927482      7.3525699     -18.767411      14.306997      67.454563      50.215404      58.054742      1              196646.39      1.2205637      6632.7177      15953.507     -5254.4492      47.634715     -545.15654      24415.016     -19834.799      4035.06        747          
    747200   37.968651      21413.812      2383.4015      23797.213     -1227.1462     -3329.1902     -85.364109     -266.88447      0.13927487     0.14944       -0.04757309    -0.051396889    0.13927487    -0.04874191    -0.052764786    344.10414     -2.2386405      5.2729853      8.2394279     -21.022363      17.891554      67.45691       50.213278      57.976562      1              196380.1       1.2222187      6616.2369      15956.542     -5231.1287      46.17357      -561.99469      24422.147     -19834.165      4025.9875      747.2        
    747400   37.750947      21405.197      2369.7356      23774.933     -1157.4074     -3225.4526     -338.06044      91.290906      0.13930967     0.14948       -0.04686781    -0.050999491    0.13930967    -0.048001675   -0.052345944    359.97367      2.8031169     -5.0071091      6.0403948     -19.793106      14.234778      67.459258      50.250462      58.00085       1              196614.7       1.2207604      6610.4124      15915.096     -5202.3299      49.456881     -549.19324      24417.514     -19835.759      4032.5623      747.4        
    747600   37.678049      21375.381      2365.1596      23740.541     -928.32948     -3371.8197      304.39976      282.43152      0.13934446     0.14952       -0.047503589   -0.051601609    0.13934446    -0.04866894    -0.052980622    337.36968     -0.59616554     0.96972063     5.4940522     -24.54909       17.157737      67.461605      50.216943      57.96405       1              196365.71      1.2223083      6598.9358      15930.81      -5224.7098      47.964133     -552.62608      24410.381     -19835.374      4022.3809      747.6        
    747800   38.227408      21390.45       2399.6445      23790.094     -1330.0631     -3570.2858     -530.24861      110.34514      0.13937926     0.14956       -0.047944218   -0.05102657     0.13937926    -0.049131652   -0.052374479    348.8392       3.935543      -1.9953399      11.807936     -22.776145      10.866285      67.463953      50.193712      57.999195      1              196400.71      1.2220905      6637.6983      15920.88      -5222.5118      51.036497     -580.60834      24418.921     -19834.965      4003.3474      747.8        
    748000   37.906627      21412.868      2379.5081      23792.376     -1041.7655     -3214.7625     -0.34355015     89.809659      0.13941406     0.1496        -0.048048871   -0.050936875    0.13941406    -0.04924158    -0.052279965    344.57331     -6.8855987      2.6491182      4.3313682     -23.859973      12.252529      67.4663        50.188195      58.004677      1              196404.52      1.2220668      6647.5629      15952.131     -5210.2406      46.52017      -577.61221      24390.835     -19836.328      3976.8952      748          
    748200   37.879367      21371.67       2377.7969      23749.467     -1305.5562     -3598.5622     -252.11082     -65.995515      0.13944885     0.14964       -0.046980749   -0.052156778    0.13944885    -0.048120175   -0.053566168    344.68802      1.7125233      2.3030697      10.337694     -23.902393      12.358479      67.468648      50.244507      57.930119      1              196378.99      1.2222257      6550.2615      15919.382     -5141.5085      50.569926     -584.73817      24413.321     -19835.617      3992.9657      748.2        
    748400   38.245833      21392.855      2400.801       23793.656     -734.89431     -2630.2313      293.24232      132.30606      0.13948364     0.14968       -0.048519552   -0.052385381    0.13948364    -0.049736141   -0.05380738     345.52303      2.5100105     -8.7131149      7.9768435     -24.210327      15.296396      67.470995      50.16338       57.916148      1              196021.44      1.2244551      6621.2807      15943.58      -5260.4729      51.776694     -544.03489      24414.251     -19833.525      4036.6905      748.4        
    748600   37.926421      21400.406      2380.7506      23781.157     -901.83725     -2926.3437      50.131772      170.70015      0.13951843     0.14972       -0.048606134   -0.051394527    0.13951843    -0.049827142   -0.052762296    339.42884     -2.4953758      7.8786248      9.389801      -20.847291      10.239681      67.473342      50.158815      57.976706      1              196215.37      1.2232448      6611.0365      15957.162     -5244.4448      47.423086     -537.33014      24402.965     -19836.405      4029.2296      748.6        
    748800   37.720866      21382.574      2367.8473      23750.421     -1252.1036     -3399.6632      7.1747411     -363.82229      0.13955322     0.14976       -0.047698968   -0.052424083    0.13955322    -0.048874085   -0.053848222    335.35493      0.63818241    -2.1816509      4.7234667     -22.995117      8.9967218      67.47569       50.206642      57.913782      1              196196.13      1.2233648      6613.1738      15916.894     -5225.5333      47.612882     -544.93165      24410.581     -19835.223      4030.4266      748.8        
    749000   37.931204      21424.759      2381.0509      23805.81      -927.83075     -3153.5962      168.35026      201.75374      0.13958801     0.1498        -0.047424917   -0.052513764    0.13958801    -0.048586347   -0.053942869    346.12444      1.4007559     -1.9693696      8.1519532     -22.042717      10.715286      67.478037      50.22109       57.908301      1              196240.84      1.2230861      6612.7705      15935.803     -5235.8726      50.00771      -519.53989      24416.111     -19834.521      4062.0507      749          
    749200   37.819848      21410.884      2374.0607      23784.945     -740.77088     -3232.1372      392.93478      616.8898       0.1396228      0.14984       -0.04761877    -0.051953493    0.1396228     -0.048789873   -0.05335172     344.13056     -5.0498179     -1.4080423      7.6418192     -15.503548      17.162485      67.480385      50.21087       57.942544      1              196323.76      1.2225695      6631.7381      15946.038     -5273.1488      49.552152     -541.46956      24432.858     -19834.684      4056.7046      749.2        
    749400   37.863117      21399.811      2376.7769      23776.588     -783.8065      -3164.3931      491.51308      321.46051      0.13965759     0.14988       -0.047939636   -0.051584719    0.13965759    -0.049126839   -0.052962812    350.35085      5.1495268      2.1705503      8.599105      -24.080964      11.397291      67.482732      50.193954      57.965082      1              196340.78      1.2224635      6616.4439      15911.137     -5207.2929      49.575941     -567.06752      24431.491     -19834.476      4029.9472      749.4        
    749600   38.532796      21414.281      2418.8145      23833.096     -996.13134     -3113.0965     -85.693428      210.39585      0.13969237     0.14992       -0.047741173   -0.051548788    0.13969237    -0.048918404   -0.052924928    336.73364     -4.429941       3.5826388      12.126732     -24.594089      13.234891      67.48508       50.204417      57.967278      1              196395.98      1.2221199      6657.0885      15932.505     -5279.281       51.335009     -561.72611      24448.577     -19834.217      4052.6336      749.6        
    749800   38.00668       21403.028      2385.7887      23788.817     -1311.0625     -3368.0314     -303.87686     -261.27918      0.13972716     0.14996       -0.048320517   -0.050899161    0.13972716    -0.049526978   -0.052240228    337.11115      3.16294       -5.4521866      6.5590613     -17.542715      11.943871      67.487427      50.173873      58.006982      1              196417.77      1.2219844      6630.8286      15896.385     -5219.4348      48.968018     -558.66612      24440.085     -19835.137      4046.2812      749.8        
    750000   37.654597      21414.585      2363.6875      23778.272     -1039.3261     -3364.0641      127.56266      118.52307      0.13976194     0.15          -0.048841977   -0.050186472    0.13976194    -0.050075066   -0.0514896      339.31297      2.8547426      2.4506709      6.2583351     -22.207685      14.542198      67.489775      50.146381      58.05054       1              196464.39      1.2216944      6653.1881      15940.927     -5226.2856      50.313518     -582.40941      24413.174     -19834.323      3996.4413      750          
Loop time of 12009.9 on 16 procs for 750000 steps with 21060 atoms

Performance: 5.396 ns/day, 4.448 hours/ns, 62.449 timesteps/s, 1.315 Matom-step/s
98.9% CPU use with 16 MPI tasks x no OpenMP threads

MPI task timing breakdown:
Section |  min time  |  avg time  |  max time  |%varavg| %total
---------------------------------------------------------------
Pair    | 7474.2     | 7924       | 8368.9     | 289.4 | 65.98
Bond    | 1672.9     | 1755.4     | 1836       | 129.9 | 14.62
Kspace  | 1040       | 1565.4     | 2088.7     | 781.9 | 13.03
Neigh   | 152.88     | 152.95     | 153.01     |   0.4 |  1.27
Comm    | 176.21     | 177.79     | 178.94     |   6.3 |  1.48
Output  | 50.139     | 50.141     | 50.149     |   0.0 |  0.42
Modify  | 326.6      | 349.04     | 362.41     |  61.4 |  2.91
Other   |            | 35.09      |            |       |  0.29

Nlocal:        1316.25 ave        1363 max        1272 min
Histogram: 2 2 2 3 0 0 0 3 3 1
Nghost:        13589.9 ave       13658 max       13487 min
Histogram: 1 0 0 1 2 2 5 3 1 1
Neighs:         810733 ave      860387 max      774122 min
Histogram: 3 3 2 1 0 1 1 3 0 2

Total # of neighbors = 12971733
Ave neighs/atom = 615.94174
Ave special neighs/atom = 5.8019943
Neighbor list builds = 7419
Dangerous builds = 0

#-------------------Wrap up-------------------
write_restart  ${myid}.restart
write_restart  tensile_1_EPON_862_pxld_86.8_replicate_4_FF_PCFF_temp_38.restart
System init for write_restart ...
PPPM initialization ...
  using 12-bit tables for long-range coulomb (../kspace.cpp:342)
  G vector (1/distance) = 0.17395703
  grid = 15 12 15
  stencil order = 5
  estimated absolute RMS force accuracy = 0.031671254
  estimated relative force accuracy = 9.5377041e-05
  using double precision KISS FFT
  3d grid and FFT values/proc = 1430 192
Generated 66 of 66 mixed pair_coeff terms from sixthpower/sixthpower mixing rule
write_data     ${myid}.data
write_data     tensile_1_EPON_862_pxld_86.8_replicate_4_FF_PCFF_temp_38.data
System init for write_data ...
PPPM initialization ...
  using 12-bit tables for long-range coulomb (../kspace.cpp:342)
  G vector (1/distance) = 0.17395703
  grid = 15 12 15
  stencil order = 5
  estimated absolute RMS force accuracy = 0.031671254
  estimated relative force accuracy = 9.5377041e-05
  using double precision KISS FFT
  3d grid and FFT values/proc = 1430 192
Generated 66 of 66 mixed pair_coeff terms from sixthpower/sixthpower mixing rule
Total wall time: 3:20:10
