thermo_style   custom step temp pe ke etotal press pxx pyy pzz v_etrue v_eengx v_eengy v_eengz v_etruex v_etruey v_etruez                f_sxx_ave f_syy_ave f_szz_ave f_sxy_ave f_sxz_ave f_syz_ave lx ly lz v_dir vol density ebond eangle edihed                eimp evdwl ecoul elong epair v_Time

restart        ${nsteps} rst1.a.${myid} rst2.a.${myid}
restart        200 rst1.a.${myid} rst2.a.${myid}
restart        200 rst1.a.tensile_1_EPON_862_pxld_86.8_replicate_4_FF_PCFF_temp_19 rst2.a.${myid}
restart        200 rst1.a.tensile_1_EPON_862_pxld_86.8_replicate_4_FF_PCFF_temp_19 rst2.a.tensile_1_EPON_862_pxld_86.8_replicate_4_FF_PCFF_temp_19
dump           6 all atom 10000 dump.${myid} #every picosecond
dump           6 all atom 10000 dump.tensile_1_EPON_862_pxld_86.8_replicate_4_FF_PCFF_temp_19 
dump_modify    6 scale no sort id

#-------------------Run-------------------
run            ${steps}
run            750000

CITE-CITE-CITE-CITE-CITE-CITE-CITE-CITE-CITE-CITE-CITE-CITE-CITE

Your simulation uses code contributions which should be cited:

- Type Label Framework: https://doi.org/10.1021/acs.jpcb.3c08419

@Article{Gissinger24,
 author = {Jacob R. Gissinger, Ilia Nikiforov, Yaser Afshar, Brendon Waters, Moon-ki Choi, Daniel S. Karls, Alexander Stukowski, Wonpil Im, Hendrik Heinz, Axel Kohlmeyer, and Ellad B. Tadmor},
 title = {Type Label Framework for Bonded Force Fields in LAMMPS},
 journal = {J. Phys. Chem. B},
 year =    2024,
 volume =  128,
 number =  13,
 pages =   {3282–-3297}
}

CITE-CITE-CITE-CITE-CITE-CITE-CITE-CITE-CITE-CITE-CITE-CITE-CITE

PPPM initialization ...
  using 12-bit tables for long-range coulomb (../kspace.cpp:342)
  G vector (1/distance) = 0.18116493
  grid = 15 15 15
  stencil order = 5
  estimated absolute RMS force accuracy = 0.022366623
  estimated relative force accuracy = 6.7356422e-05
  using double precision KISS FFT
  3d grid and FFT values/proc = 1521 256
Generated 66 of 66 mixed pair_coeff terms from sixthpower/sixthpower mixing rule
Neighbor list info ...
  update: every = 1 steps, delay = 0 steps, check = yes
  max neighbors/atom: 5000, page size: 100000
  master list distance cutoff = 14
  ghost atom cutoff = 14
  binsize = 7, bins = 9 8 9
  1 neighbor lists, perpetual/occasional/extra = 1 0 0
  (1) pair lj/class2/coul/long, perpetual
      attributes: half, newton on
      pair build: half/bin/newton
      stencil: half/bin/3d
      bin: standard
WARNING: Inconsistent image flags (../domain.cpp:1051)
Per MPI rank memory allocation (min/avg/max) = 19.48 | 19.6 | 19.87 Mbytes
   Step          Temp          PotEng         KinEng         TotEng         Press           Pxx            Pyy            Pzz          v_etrue        v_eengx        v_eengy        v_eengz        v_etruex       v_etruey       v_etruez      f_sxx_ave      f_syy_ave      f_szz_ave      f_sxy_ave      f_sxz_ave      f_syz_ave          Lx             Ly             Lz           v_dir          Volume        Density         E_bond        E_angle        E_dihed        E_impro         E_vdwl         E_coul         E_long         E_pair         v_Time    
         0   18.888508      19446.006      1185.686       20631.692      48.690282      48.48242       151.14985     -53.56142       0              2.4254143e-16  1.3447034e-16  7.0029258e-16  2.220446e-16   2.220446e-16   6.6613381e-16  0              0              0              0              0              0              58.591452      52.84011       60.878217      1              188477.67      1.2734635      6144.8959      15319.131     -5394.1071      14.228737     -1108.0856      24327.428     -19857.485      3361.8578      0            
       200   19.14024       19447.271      1201.488       20648.759      65.273075      77.74843       129.92696     -11.856159      3.99992e-05    4e-05         -0.0011624632   0.0015120188   3.99992e-05   -0.0011631394   0.0015108769  -4.3841848     -0.16244487    -2.1062418      8.4599519     -17.67284       9.0384975      58.593796      52.778685      60.970266      1              188550.76      1.2729699      6173.4184      15337.411     -5430.2899      14.574955     -1118.488       24328.264     -19857.619      3352.157       0.2          
       400   19.137487      19448.113      1201.3151      20649.428     -17.423011      339.89436     -162.18504     -229.97835      7.99968e-05    8e-05         -0.0016830924   0.0020850026   7.99968e-05   -0.0016845104   0.002082832    6.592811      -2.1111314      2.7530718      10.966182     -18.984961      7.2746726      58.596139      52.751175      61.005149      1              188567.84      1.2728546      6181.2377      15338.825     -5448.5731      17.403312     -1111.6879      24328.241     -19857.333      3359.2203      0.4          
       600   18.922132      19452.085      1187.7967      20639.882     -147.91059     -51.489658     -176.45457     -215.78754      0.0001199928   0.00012       -0.00062846882  0.0012618727   0.0001199928  -0.00062866639  0.0012610772   0.21995065     1.4237737     -1.2583903      8.3061148     -18.339376      8.3751293      58.598483      52.806901      60.955038      1              188619.53      1.2725058      6162.7915      15343.579     -5441.8071      17.601545     -1103.6689      24331.318     -19857.729      3369.9208      0.6          
       800   18.861836      19441.461      1184.0117      20625.473     -67.723287     -260.39065      204.96546     -147.74466      0.0001599872   0.00016       -0.0011964702   0.00080212947  0.0001599872  -0.0011971865   0.00080180793  0.9583344      0.31048493    -0.40465118     7.8877313     -17.662219      9.1493645      58.600827      52.776888      60.92705       1              188433.31      1.2737633      6160.7749      15329.961     -5439.5602      16.239634     -1100.3469      24332.473     -19858.08       3374.0464      0.8          
      1000   19.184021      19445.712      1204.2362      20649.948      104.1786      -179.39123      260.86301      231.06401      0.00019998     0.0002        -0.0002097056   0.0010576653   0.00019998    -0.00020972759  0.0010571063   0.1216836     -0.47838172    -0.0096496052   9.0995331     -17.025151      11.24989       58.60317       52.829029      60.942606      1              188675.17      1.2721305      6209.2725      15320.923     -5458.2856      13.304956     -1121.0481      24339.251     -19857.706      3360.4968      1            
      1200   18.926987      19449.55       1188.1015      20637.652      155.63717      214.68481      92.348796      159.8779       0.0002399712   0.00024       -0.0011566595   0.00096115729  0.0002399712  -0.001157329    0.00096069567 -4.0632657     -0.088121881   -0.045233189    9.4479357     -16.584354      7.9173038      58.605514      52.778992      60.936731      1              188485.84      1.2734084      6164.8053      15319.97      -5404.2913      14.936261     -1112.5829      24324.611     -19857.898      3354.1302      1.2          
      1400   18.926008      19442.045      1188.04        20630.085      6.6462041      49.916765     -100.28993      70.311779      0.00027996081  0.00028       -0.0012155566   0.0012561429   0.00027996081 -0.001216296    0.0012553546  -3.4880819      1.6291491      1.6367651      10.237097     -18.49038       7.8270693      58.607858      52.77588       60.954689      1              188537.81      1.2730574      6144.9098      15313.479     -5391.4384      14.606191     -1108.4982      24326.432     -19857.446      3360.4881      1.4          
      1600   18.901521      19450.972      1186.5029      20637.475      85.378276      216.21317     -62.934343      102.856        0.00031994881  0.00032       -0.00076163758  0.0015028013   0.00031994881 -0.00076192778  0.0015016732  -5.5486887     -3.2389281     -0.49482477     10.422882     -17.177         8.35659        58.610201      52.799865      60.969705      1              188677.5       1.2721148      6180.2281      15339.705     -5432.0779      14.688021     -1131.5189      24337.502     -19857.554      3348.4286      1.6          
      1800   19.016554      19443.406      1193.7239      20637.129     -152.16354     -90.452659     -196.10069     -169.93727      0.00035993522  0.00036       -0.00057035422 -0.00020120086  0.00035993522 -0.00057051693 -0.00020122111 -5.568633       0.57825919    -2.3736811      12.524215     -20.638902      10.722312      58.612545      52.809972      60.865969      1              188400.07      1.2739881      6134.6402      15320.516     -5396.9852      17.692646     -1094.7163      24320.033     -19857.775      3367.5418      1.8          
      2000   18.82196       19449.808      1181.5086      20631.317      152.19232      15.613784      434.95841      6.0047638      0.00039992002  0.0004        -0.00052280835 -0.00024509596  0.00039992002 -0.00052294507 -0.00024512601 -3.1789326      0.80372894     1.6213338      11.431503     -18.013753      8.51837        58.614889      52.812484      60.863296      1              188408.29      1.2739325      6166.5236      15316.694     -5425.9702      13.968347     -1101.2281      24337.709     -19857.889      3378.5925      2            
      2200   18.911364      19455.589      1187.1208      20642.71      -1.0548961     -187.1186       210.7992      -26.845295      0.00043990323  0.00044       -0.00064868498  0.00065985393  0.00043990323 -0.00064889547  0.00065963633 -1.8654757     -0.98696323    -0.28293045     11.807719     -19.407678      9.2407011      58.617232      52.805833      60.918388      1              188562.62      1.2728898      6154.8626      15331.761     -5391.3185      15.646625     -1128.7583      24330.293     -19856.897      3344.6379      2.2          
      2400   19.005507      19447.768      1193.0304      20640.799     -10.483542     -182.5992       133.39424      17.754339      0.00047988484  0.00048       -0.00096110455  0.00059275918  0.00047988484 -0.0009615667   0.00059258357  1.1527553      1.3754392     -1.4267838      10.111464     -18.188731      7.0759083      58.619576      52.789325      60.914304      1              188498.57      1.2733223      6171.5853      15309.648     -5413.5588      12.809984     -1108.8993      24333.466     -19857.283      3367.2839      2.4          
      2600   19.076954      19432.594      1197.5153      20630.109      211.57628      177.59009      342.31025      114.8285       0.00051986485  0.00052       -0.0013461364   0.0010695019   0.00051986485 -0.0013470432   0.0010689304   2.6700788     -0.99012822     2.2118645      11.498483     -14.618531      9.2499128      58.62192       52.76898       60.943327      1              188523.24      1.2731557      6150.3495      15334.364     -5439.8936      13.739248     -1094.8947      24326.391     -19857.462      3374.034       2.6          
      2800   19.21468       19441.786      1206.1608      20647.947     -61.858487      236.35692     -48.053169     -373.87921      0.00055984326  0.00056       -0.0010907415   0.0013487421   0.00055984326 -0.0010913368   0.0013478334  -0.34559795     1.1442222     -0.9156907      9.0662152     -17.818175      3.2590817      58.624263      52.782475      60.960326      1              188631.59      1.2724244      6157.9748      15324.148     -5427.3303      14.510869     -1095.5123      24325.672     -19857.677      3372.4835      2.8          
      3000   18.744503      19444.799      1176.6464      20621.446     -64.005218     -144.36392      188.91114     -236.56287      0.00059982007  0.0006        -0.0013806216   0.00049035293  0.00059982007 -0.0013815755   0.00049023275 -3.9908934      0.13634402     0.41039503     8.6215642     -15.194829      8.9818806      58.626607      52.767158      60.908069      1              188422.73      1.2738348      6188.6274      15317.99      -5430.5152      16.023674     -1111.5729      24322.807     -19858.561      3352.6732      3            
      3200   19.081577      19436.204      1197.8055      20634.01       69.715826      75.068054      188.17983     -54.100409      0.00063979529  0.00064       -0.0014761156   0.0010933178   0.00063979529 -0.0014772061   0.0010927206   3.6285038     -2.7545101     -0.57859231     6.6169099     -20.074484      10.461089      58.628951      52.762112      60.944777      1              188525.79      1.2731385      6163.5687      15331.046     -5447.0938      13.720075     -1100.6159      24333.141     -19857.562      3374.9634      3.2          
      3400   18.99668       19451.999      1192.4763      20644.476     -141.21926     -393.88213      141.40589     -171.18153      0.0006797689   0.00068       -0.0012759504   0.00036542027  0.0006797689  -0.0012767651   0.00036535352  5.5407609      1.6847136      1.2137629      9.7098168     -20.330088      4.3391871      58.631294      52.772688      60.900464      1              188434.01      1.2737586      6167.7598      15312.983     -5413.8554      13.667079     -1103.1435      24332.337     -19857.749      3371.4447      3.4          
      3600   18.843351      19439.954      1182.8514      20622.805     -131.0379       62.131704     -54.791183     -400.45421      0.00071974092  0.00072       -0.00067914166  0.0012428289   0.00071974092 -0.00067937238  0.0012420572   4.4108912     -1.6296201     -2.1476382      13.408254     -18.422275      7.7030902      58.633638      52.804224      60.953879      1              188719.53      1.2718315      6155.9638      15291.746     -5406.6765      12.520332     -1081.768       24325.118     -19856.95       3386.4         3.6          
      3800   18.743783      19457.48       1176.6012      20634.081     -36.884298     -141.85307      146.6087      -115.40852      0.00075971135  0.00076       -0.00079451908  0.0011530378   0.00075971135 -0.00079483488  0.0011523735   6.8663704      2.4025057      0.42627845     5.1797888     -20.806259      9.7852926      58.635982      52.798127      60.948412      1              188688.36      1.2720416      6182.5218      15312.744     -5424.4862      13.385656     -1097.5907      24328.227     -19857.322      3373.3149      3.8          
      4000   19.082355      19442.782      1197.8543      20640.636      126.58458      16.69628       64.929443      298.128        0.00079968017  0.0008        -0.0013883436   0.0010686246   0.00079968017 -0.0013893083   0.001068054    5.9707504     -0.025411665   -1.2539944      11.114363     -11.950854      8.8740553      58.638325      52.766749      60.943273      1              188567.86      1.2728544      6167.9789      15356.034     -5461.5104      12.139306     -1104.1476      24329.736     -19857.448      3368.1401      4            
      4200   18.904217      19441.957      1186.6721      20628.629      176.70014     -62.122475      368.65906      223.56384      0.0008396474   0.00084       -0.0019945437   0.0012488355   0.0008396474  -0.0019965355   0.0012480563  -2.0202335     -1.3161509     -0.35123489     6.8784499     -17.796126      9.1709857      58.640669      52.734718      60.954244      1              188494.85      1.2733475      6174.5187      15298.552     -5432.554       17.0122       -1098.0347      24339.639     -19857.176      3384.4275      4.2          
      4400   19.01786       19431.722      1193.8058      20625.528      115.32881      97.233329      285.01502     -36.261931      0.00087961303  0.00088       -0.0017716885   0.001280597    0.00087961303 -0.0017732598   0.0012797777   4.9622226     -1.1822227      0.32775858     10.602575     -16.706042      6.4276778      58.643013      52.746493      60.956178      1              188550.46      1.2729719      6171.0209      15317.977     -5441.9544      16.218011     -1102.4062      24328.326     -19857.459      3368.4604      4.4          
      4600   19.132027      19442.051      1200.9724      20643.023      8.1136817     -66.92773      -19.007697      110.27647      0.00091957706  0.00092       -0.00063316424  0.00010153012  0.00091957706 -0.00063336477  0.00010152497 -0.53767597     1.7944603      0.77997992     11.260239     -15.330296      6.7879753      58.645356      52.806653      60.884398      1              188550.76      1.2729699      6174.1091      15326.303     -5430.8076      15.402447     -1126.8702      24341.401     -19857.487      3357.0441      4.6          
      4800   18.827303      19451.587      1181.844       20633.431     -174.0016      -150.88343     -177.80365     -193.31771      0.00095953949  0.00096       -0.0016300793   0.00044200498  0.00095953949 -0.0016314094   0.00044190733 -1.2235377      1.4365803     -1.4502222      10.595154     -17.704262      7.5461212      58.6477        52.753976      60.905126      1              188434.33      1.2737564      6179.4434      15308.534     -5408.0168      12.675937     -1107.3533      24324.17      -19857.865      3358.9512      4.8          
      5000   18.975103      19434.065      1191.1218      20625.187     -17.588337     -77.421128      139.85717     -115.20105      0.00099950033  0.001         -0.00099321944  0.00049887827  0.00099950033 -0.00099371301  0.00049875387 -2.2312591     -2.5033583      1.5337933      8.9369227     -18.19345       8.0039088      58.650044      52.787628      60.908588      1              188572.79      1.2728212      6144.8636      15307.862     -5376.7653      13.050204     -1135.6635      24338.072     -19857.354      3345.0546      5            
      5200   19.113957      19450.028      1199.8381      20649.866      31.849633     -367.52741      112.17426      350.90204      0.0010394596   0.00104       -0.0018110165   0.0011156074   0.0010394596  -0.0018126583   0.0011149856   8.6515972     -0.29602932    -1.2721408      7.8406448     -18.671802      10.14654       58.652387      52.744415      60.946134      1              188542.1       1.2730284      6160.5634      15323.06      -5422.3043      13.614083     -1108.1057      24341.001     -19857.8        3375.0945      5.2          
      5400   18.941711      19441.408      1189.0258      20630.434      7.0558621     -145.11377     -49.882118      216.16347      0.0010794172   0.00108       -0.0015916997   0.0005897376   0.0010794172  -0.0015929678   0.00058956377  2.5951622      1.1685443      1.9460735      7.0012481     -18.175768      8.3055825      58.654731      52.756004      60.91412       1              188492         1.2733668      6154.1674      15328.581     -5417.5803      16.67454      -1110.274       24327.749     -19857.91       3359.5651      5.4          
      5600   19.087572      19445.087      1198.1818      20643.269      96.459871      276.15519      97.376683     -84.152266      0.0011193733   0.00112       -0.0016441232   0.0012099736   0.0011193733  -0.0016454762   0.0012092422   5.677865      -0.69324884     0.48042631     9.5358775     -18.021967      10.399508      58.657075      52.753234      60.951878      1              188606.47      1.2725939      6164.746       15333.513     -5437.3679      14.724626     -1107.2609      24334.574     -19857.842      3369.4713      5.6          
      5800   19.015175      19454.567      1193.6373      20648.204      147.12749      326.16887      3.2622591      111.95134      0.0011593277   0.00116       -0.0012926781  -0.00049834727  0.0011593277  -0.0012935143  -0.00049847149  8.343862      -0.91540997    -1.6004008      10.934762     -19.568649      7.412359       58.659418      52.771804      60.847879      1              188358.46      1.2742695      6187.272       15319.389     -5436.3377      18.663594     -1106.2625      24328.575     -19856.733      3365.5796      5.8          
      6000   18.867683      19453.803      1184.3788      20638.182      112.32326      397.1732      -92.611154      32.407748      0.0011992806   0.0012        -0.00041684671  0.00014619494  0.0011992806  -0.00041693361  0.00014618426  4.0724151      2.804319      -0.65157874     10.995972     -20.209639      9.6903763      58.661762      52.818083      60.887117      1              188652.76      1.2722816      6179.3153      15329.478     -5414.4675      15.804971     -1121.6808      24323.052     -19857.698      3343.673       6            
      6200   19.007428      19442.856      1193.151       20636.007     -106.58548      83.51055      -198.7184      -204.54858      0.0012392318   0.00124       -0.0016372118   0.00099219447  0.0012392318  -0.0016385535   0.00099170257 -0.86312343    -1.591438       0.25000054     9.6143256     -18.015881      10.636555      58.664105      52.753599      60.93862       1              188589.35      1.2727094      6160.1206      15324.778     -5424.0402      15.072264     -1105.4469      24329.363     -19856.99       3366.9257      6.2          
      6400   19.042629      19436.405      1195.3606      20631.766     -195.82968     -468.38057     -83.615137     -35.493316      0.0012791815   0.00128       -0.0016541728   0.0014055005   0.0012791815  -0.0016555424   0.0014045137   11.543085     -0.81897286    -0.54549021     8.0988559     -16.945171      6.6093288      58.666449      52.752703      60.963782      1              188671.55      1.2721549      6167.0988      15335.582     -5422.5687      15.394229     -1131.6489      24330.323     -19857.775      3340.8992      6.4          
      6600   19.090422      19449.135      1198.3607      20647.496     -165.19514     -305.95312     -62.154063     -127.47824      0.0013191296   0.00132       -0.0013858482   0.00094076816  0.0013191296  -0.0013868094   0.00094032592  6.3235393      0.30765156     1.434913       11.183837     -11.974338      5.097326       58.668793      52.766881      60.93549       1              188642.21      1.2723528      6173.5989      15334.046     -5423.4853      15.077624     -1116.0613      24323.546     -19857.587      3349.8975      6.6          
      6800   19.111579      19442.084      1199.6889      20641.772      292.62459      317.68916      250.18419      310.00041      0.001359076    0.00136       -0.0015948318   0.000813239    0.001359076   -0.0015961049   0.0008129085  -3.5593953     -1.2282361     -0.68289199     10.432412     -18.690658      8.3591165      58.671136      52.755839      60.927726      1              188586.24      1.2727304      6163.1774      15334.798     -5446.2974      14.609344     -1097.7342      24331.888     -19858.357      3375.7966      6.8          
      7000   18.906515      19437.697      1186.8164      20624.513     -13.76953      -110.34852      64.501013      4.5389128      0.0013990209   0.0014        -0.001108218    0.0012239243   0.0013990209  -0.0011088326   0.0012231759   5.2029523      2.1865011      0.34453079     12.709518     -16.289234      6.9449192      58.67348       52.781551      60.952728      1              188763.12      1.2715378      6146.343       15306.866     -5398.4918      16.272866     -1110.2614      24334.658     -19857.69       3366.707       7            
      7200   19.221927      19434.156      1206.6157      20640.771      57.851182      101.56867     -117.27805      189.26293      0.0014389642   0.00144       -0.0010047693  -4.8454011e-05  0.0014389642  -0.0010052744  -4.8455185e-05  0.82132891    -2.2068108     -1.0038991      10.254349     -17.794439      7.2856386      58.675824      52.787018      60.875268      1              188550.29      1.2729731      6159.4978      15340.01      -5459.229       16.189603     -1095.9454      24331.02      -19857.387      3377.6877      7.2          
      7400   18.966834      19450.213      1190.6028      20640.816      36.176265     -167.54059      122.28094      153.78844      0.0014789059   0.00148       -0.0011568179   0.00038825872  0.0014789059  -0.0011574875   0.00038818336  1.579827       2.9252707      0.28984231     9.4292693     -15.124489      5.5074545      58.678167      52.778983      60.901854      1              188611.46      1.2725602      6149.3434      15311.831     -5403.1428      17.957585     -1087.1154      24319.398     -19858.059      3374.2241      7.4          
      7600   18.824941      19435.392      1181.6957      20617.088      309.62289      220.49367      304.4456       403.92939      0.001518846    0.00152       -0.0015135681  -0.00026112361  0.001518846   -0.0015147147  -0.00026115771  4.2769981     -4.6438008     -0.4176133      12.126442     -23.902656      11.130705      58.680511      52.760133      60.862321      1              188429.23      1.2737909      6161.1666      15351.355     -5449.6798      16.230053     -1113.2802      24327.168     -19857.567      3356.3207      7.6          
      7800   19.052988      19435.649      1196.0109      20631.66      -94.807984     -195.3197      -23.754247     -65.350008      0.0015587845   0.00156       -0.001101039    0.00042679273  0.0015587845  -0.0011016456   0.00042670168  3.9729661      2.1010535     -1.3519445      7.6734094     -17.264345      8.6738163      58.682855      52.781931      60.9042        1              188644.33      1.2723385      6161.3602      15335.562     -5410.9402      15.399145     -1140.4802      24332.131     -19857.383      3334.2678      7.8          
      8000   19.099839      19444.421      1198.9519      20643.373     -319.50703     -430.11608     -162.33589     -366.06912      0.0015987214   0.0016        -0.0022252217   0.0004860756   0.0015987214  -0.0022277011   0.00048595751  6.3431878     -0.15327898    -2.1580033      6.9366493     -15.082806      8.8695397      58.685198      52.722529      60.907809      1              188450.71      1.2736457      6157.7789      15334.306     -5400.797       14.114895     -1125.4503      24323.025     -19858.557      3339.0177      8            
      8200   18.975579      19454.168      1191.1517      20645.32      -64.030981     -17.002885     -53.41225      -121.67781      0.0016386567   0.00164       -0.0015382104   0.0014366725   0.0016386567  -0.0015393947   0.0014356414   8.1282786      0.17089744     2.7247065      9.2011589     -19.336903      6.9919057      58.687542      52.758831      60.965679      1              188767.18      1.2715104      6185.0411      15319.224     -5417.0274      13.115714     -1111.3088      24322.449     -19857.325      3353.8146      8.2          
      8400   18.831998      19443.615      1182.1387      20625.754      38.058014     -118.95264     -126.68488      359.81157      0.0016785904   0.00168       -0.0014376321   0.00040732982  0.0016785904  -0.0014386664   0.00040724689  4.9980257     -2.6194126      0.99584271     7.7139957     -18.207611      10.657387      58.689886      52.764145      60.903015      1              188599.68      1.2726397      6155.8642      15335.056     -5406.3119      15.328021     -1130.5754      24332.106     -19857.852      3343.6788      8.4          
      8600   18.898856      19459.187      1186.3356      20645.523      42.163224      85.965319     -139.8802       180.40455      0.0017185225   0.00172       -0.0012937046   3.4877795e-06  0.0017185225  -0.0012945421   3.4877734e-06  3.8343131      2.9244198     -1.8607357      7.956348      -17.433776      7.3955986      58.692229      52.77175       60.87843       1              188558.25      1.2729193      6173.1273      15314.133     -5431.2131      14.823957     -1093.9315      24339.288     -19857.04       3388.3162      8.6          
      8800   19.027259      19444.204      1194.3958      20638.6       -86.419452     -110.10136     -40.284906     -108.87209      0.001758453    0.00176       -0.0014586308   5.639898e-05   0.001758453   -0.0014596956   5.639739e-05   6.171219      -1.4662418      1.6826246      15.460826     -19.016168      11.766738      58.694573      52.763036      60.881651      1              188544.62      1.2730114      6153.6784      15302.187     -5393.0695      17.134728     -1112.2942      24333.908     -19857.34       3364.2734      8.8          
      9000   18.896125      19432.411      1186.1642      20618.575     -132.92127     -311.41941     -170.69526      83.350851      0.0017983819   0.0018        -0.0014387743   0.00061099619  0.0017983819  -0.0014398104   0.00061080961  3.3004365      1.0271287     -0.60684026     16.49383      -14.045188      7.0854598      58.696917      52.764085      60.915414      1              188660.46      1.2722297      6177.2684      15303.637     -5430.9772      15.259587     -1103.0037      24327.893     -19857.666      3367.2232      9            
      9200   19.157304      19441.884      1202.5591      20644.443     -35.12651      -197.56084     -116.67483      208.85615      0.0018383093   0.00184       -0.0021416937   0.0011980722   0.0018383093  -0.0021439904   0.0011973551   12.929426      0.52436425     0.0099671041   10.43416      -17.501098      9.1895885      58.69926       52.726942      60.951154      1              188645.8       1.2723285      6157.53        15304.445     -5415.9004      14.342329     -1091.102       24329.92      -19857.351      3381.467       9.2          
      9400   19.036607      19437.758      1194.9827      20632.74       95.75963      -158.92729      272.57839      173.62779      0.001878235    0.00188       -0.0017349782   2.7887824e-05  0.001878235   -0.001736485    2.7887435e-05  5.9031        -1.9430914      0.49321137     8.3882627     -18.609418      7.6743267      58.701604      52.748433      60.879915      1              188509.64      1.2732475      6186.59        15337.855     -5435.2886      16.931691     -1126.3593      24316.078     -19858.048      3331.6701      9.4          
      9600   18.880563      19436.255      1185.1873      20621.442     -93.630944     -120.63179     -16.626849     -143.63419      0.0019181592   0.00192       -0.0010851229  -0.00058634121  0.0019181592  -0.0010857121  -0.00058651318  4.3539111     -1.1248979     -2.0804687      4.8605406     -16.682964      9.0717788      58.703948      52.782772      60.842522      1              188524.03      1.2731504      6141.2393      15320.573     -5417.8406      14.392178     -1098.4228      24333.514     -19857.2        3377.8904      9.6          
      9800   19.021744      19453.572      1194.0496      20647.622     -17.259081     -304.2126       58.541163      193.8942       0.0019580817   0.00196       -0.00075526175 -0.00052092856  0.0019580817  -0.00075554711 -0.00052106429  14.277388      2.3971499      0.072032426    11.690031     -18.481328      7.0016849      58.706291      52.800202      60.846504      1              188606.15      1.272596       6170.4237      15329.63      -5429.1781      14.547314     -1106.2696      24331.52      -19857.102      3368.1487      9.8          
     10000   19.098829      19434.681      1198.8885      20633.569     -125.62393     -164.01606     -89.347859     -123.50788      0.0019980027   0.002         -0.0014955555   0.0010464556   0.0019980027  -0.001496675    0.0010459084   12.890708      0.44416812     0.83364286     10.102382     -17.179289      8.6867768      58.708635      52.761084      60.941924      1              188769.51      1.2714947      6144.8682      15299.642     -5412.8262      14.977703     -1095.5025      24341.62      -19858.099      3388.0187      10           
     10200   18.954647      19440.551      1189.8377      20630.388     -138.63708     -114.68825     -108.12537     -193.09762      0.002037922    0.00204       -0.0022272967   0.0010441586   0.002037922   -0.0022297808   0.0010436139   10.543741     -2.0438933     -0.6829121      11.079844     -16.954314      7.2445094      58.710979      52.722419      60.941784      1              188638.27      1.2723793      6176.2121      15307.776     -5424.6376      16.45997      -1100.9677      24323.362     -19857.655      3364.7397      10.2         
     10400   18.987562      19459.082      1191.9039      20650.986      106.268       -137.09582      240.85717      215.04266      0.0020778398   0.00208       -0.0021920409   0.00093465978  0.0020778398  -0.002194447    0.00093422326  4.3658248      0.28312467     0.33732946     9.7613867     -18.392919      4.5922451      58.713322      52.724282      60.935118      1              188631.83      1.2724228      6156.0298      15327.76      -5434.1523      16.826737     -1097.7898      24347.694     -19857.287      3392.618       10.4         
     10600   18.826407      19447.347      1181.7878      20629.135     -41.344564     -79.103931     -121.99113      77.061372      0.002117756    0.00212       -0.0018949911   0.00073077633  0.002117756   -0.0018967888   0.00073050944  4.8513445     -1.1391532     -0.63054696     9.7427693     -18.884829      8.4814197      58.715666      52.739978      60.922706      1              188657.09      1.2722525      6168.7794      15318.321     -5420.4649      17.412783     -1106.95        24328.062     -19857.813      3363.2987      10.6         
     10800   19.056141      19447.915      1196.2089      20644.124      74.278172     -55.753299      194.4031       84.184718      0.0021576706   0.00216       -0.0017751984   0.00067986144  0.0021576706  -0.0017767759   0.00067963044  9.0317854      0.15520365     0.92148141     5.6202758     -21.193379      7.4844312      58.71801       52.746308      60.919606      1              188677.66      1.2721137      6155.6095      15331.651     -5438.414       14.233552     -1076.1539      24318.479     -19857.489      3384.8353      10.8         
     11000   19.119948      19453.847      1200.2142      20654.061     -342.6956      -210.71454     -339.02361     -478.34865      0.0021975835   0.0022        -0.0015811254  -0.00020413347  0.0021975835  -0.0015823767  -0.00020415431  13.302597      0.6492617      0.58282886     8.8848247     -15.949237      11.647453      58.720353      52.756563      60.86579       1              188555.16      1.2729402      6182.8275      15307.864     -5401.9667      15.17722      -1109.1169      24316.587     -19857.526      3349.9445      11           
     11200   19.127069      19436.956      1200.6612      20637.617     -9.0280873      102.22139     -159.19122      29.885571      0.0022374949   0.00224       -0.0014195676   0.00029381451  0.0022374949  -0.0014205762   0.00029377136  3.7936235     -1.0581514     -2.2961804      8.5534833     -19.886534      9.5646398      58.722697      52.7651        60.896104      1              188687.12      1.2720499      6148.2203      15312.606     -5416.1028      16.229091     -1102.739       24336.039     -19857.297      3376.0037      11.2         
     11400   18.856183      19446.561      1183.6569      20630.218      50.986947      92.991631      8.9817389      50.987472      0.0022774047   0.00228       -0.001533693    0.00023543705  0.0022774047  -0.0015348703   0.00023540934  10.839588      0.092396316   -0.31515211     10.676104     -15.434543      11.501757      58.725041      52.759069      60.89255       1              188662.08      1.2722188      6183.4827      15290.047     -5405.5027      16.010588     -1103.6777      24323.65      -19857.449      3362.5237      11.4         
     11600   19.098178      19454.027      1198.8476      20652.875      253.47107      224.96454      460.53809      74.91057       0.002317313    0.00232       -0.0017571647   8.020666e-05   0.002317313   -0.0017587104   8.0203444e-05  10.89395       0.95863303     1.2769978      11.7006       -19.078394      8.8676379      58.727384      52.747261      60.8831        1              188598.11      1.2726503      6172.535       15353.585     -5459.0015      17.252361     -1111.5956      24338.724     -19857.471      3369.6565      11.6         
     11800   18.962719      19443.143      1190.3445      20633.487     -83.444975     -524.66093      138.18125      136.14476      0.0023572196   0.00236       -0.0013758895  -0.00031686239  0.0023572196  -0.0013768369  -0.00031691261  10.769433     -0.075795498    2.6585991      10.772255     -17.821165      8.7057916      58.729728      52.767408      60.858927      1              188602.76      1.2726189      6178.3393      15309.255     -5400.3737      16.264301     -1132.8475      24330.569     -19858.064      3339.6575      11.8         
     12000   19.003381      19443.321      1192.8969      20636.218     -46.896621     -335.97764      223.50175     -28.213976      0.0023971246   0.0024        -0.00090743074 -0.00060897707  0.0023971246  -0.0009078427  -0.00060916257  6.6591171     -1.8203574     -2.331377       13.224336     -17.531862      10.180845      58.732072      52.792161      60.841144      1              188643.62      1.2723432      6173.6793      15341.568     -5451.6799      17.457992     -1112.2159      24332.36      -19857.848      3362.2956      12           
     12200   19.252788      19456.581      1208.5529      20665.134     -176.86409     -129.92899     -126.60155     -274.06172      0.002437028    0.00244       -0.0012418002  -0.00013595039  0.002437028   -0.0012425718  -0.00013595964  5.4833839      2.5616322     -2.2535643      10.984809     -17.90082       6.6657511      58.734415      52.774493      60.869941      1              188677.28      1.2721163      6178.9097      15319.223     -5418.6417      15.469298     -1103.3192      24323.225     -19858.285      3361.6207      12.2         
     12400   19.03977       19452.294      1195.1812      20647.475     -130.14702     -35.733717     -69.271131     -285.43622      0.0024769299   0.00248       -0.0018734858   0.0006442253   0.0024769299  -0.001875243    0.00064401787  12.975001     -0.82885757     0.91871389     12.173393     -19.34476       8.1114365      58.736759      52.741115      60.917437      1              188712.6       1.2718782      6167.204       15323.004     -5413.5042      17.227758     -1108.4437      24324.243     -19857.437      3358.3627      12.4         
     12600   18.798858      19450.436      1180.0584      20630.494      73.203444      167.85126      185.86404     -134.10496      0.0025168301   0.00252       -0.0024206247   0.00074466389  0.0025168301  -0.0024235591   0.00074438676  10.757741     -0.07099189     1.4090018      7.8873186     -15.102609      9.1310286      58.739103      52.712204      60.923551      1              188635.61      1.2723973      6164.6861      15343.041     -5433.2129      12.929634     -1119.8159      24339.78      -19856.973      3362.9915      12.6         
     12800   19.071545      19449.031      1197.1758      20646.207     -239.69904     -398.75509     -64.728103     -255.61394      0.0025567288   0.00256       -0.001460041    0.00064201133  0.0025567288  -0.0014611079   0.00064180533  8.7855543     -0.14051541    -0.65735169     6.2922072     -19.08478       5.1915387      58.741446      52.762961      60.917302      1              188805.42      1.2712529      6163.5253      15325.547     -5405.9004      14.581863     -1123.8249      24332.284     -19857.181      3351.2775      12.8         
     13000   19.098222      19451.949      1198.8504      20650.799     -52.062857     -188.83573     -4.578686       37.225845      0.0025966258   0.0026        -0.0020355898  -0.00031016787  0.0025966258  -0.0020376644  -0.00031021598  10.530985      0.083042802    0.24746504     7.8477981     -20.867062      10.034771      58.74379       52.732549      60.859335      1              188524.56      1.2731468      6158.6522      15337.285     -5407.6698      13.512912     -1113.6422      24320.736     -19856.926      3350.1683      13           
     13200   18.910815      19447.128      1187.0863      20634.214     -24.653198     -138.7266      -28.784246      93.551252      0.0026365213   0.00264       -0.0016336897  -0.00024697671  0.0026365213  -0.0016350256  -0.00024700722  11.564813     -2.1806621     -2.6777752      12.478641     -15.957216      6.268823       58.746134      52.753785      60.863182      1              188619.93      1.2725031      6173.5371      15316.87      -5417.5789      15.686857     -1104.9372      24321.222     -19857.672      3358.6128      13.2         
     13400   18.995934      19445.992      1192.4294      20638.422      95.865307     -164.68118      487.77534     -35.49824       0.0026764152   0.00268       -0.00068365227 -0.00056448369  0.0026764152  -0.00068388607 -0.00056464307  14.719333      2.2084523      1.6497432      8.4890307     -15.357045      9.7103094      58.748477      52.803985      60.843853      1              188746.98      1.2716465      6147.7505      15333.661     -5411.3225      13.323756     -1109.0593      24329.607     -19857.968      3362.5801      13.4         
     13600   19.051344      19459.399      1195.9077      20655.307     -170.24695     -135.37866     -147.09736     -228.26485      0.0027163075   0.00272       -0.001103683    0.00022302806  0.0027163075  -0.0011042925   0.0002230032   15.455212     -0.52922469     0.17540078     14.1938       -18.205181      9.3970974      58.750821      52.781791      60.891795      1              188823.85      1.2711289      6164.5572      15320.107     -5381.38        12.660359     -1125.5616      24326.897     -19857.881      3343.4544      13.6         
     13800   19.033565      19439.791      1194.7917      20634.583     -65.646851     -74.293445     -75.544768     -47.10234       0.0027561982   0.00276       -0.0010972927  -0.00072765352  0.0027561982  -0.0010978952  -0.00072791838  10.642548     -0.59277271     0.28612369     12.324578     -17.411427      9.0134193      58.753164      52.782129      60.833919      1              188653.11      1.2722793      6167.5161      15319.241     -5421.0502      12.99817      -1105.0619      24323.683     -19857.535      3361.0863      13.8         
     14000   18.871794      19453.166      1184.6368      20637.803     -60.251942     -196.38214      173.23214     -157.60582      0.0027960873   0.0028        -0.0025439655   0.00056160614  0.0027960873  -0.0025472069   0.0005614485   16.333324      1.4358848     -3.2548665      6.5990322     -15.694532      9.2956273      58.755508      52.705686      60.912407      1              188630.46      1.272432       6161.7569      15349.587     -5431.4015      17.661045     -1123.7451      24335.855     -19856.547      3355.5633      14           
     14200   19.06533       19447.887      1196.7857      20644.673     -15.618296     -136.61643      109.83275     -20.071212      0.0028359748   0.00284       -0.0028078225   0.00057378031  0.0028359748  -0.0028117718   0.00057361576  11.932296     -1.7257489      0.82368797     10.460396     -15.434616      8.3890582      58.757852      52.691744      60.913148      1              188590.38      1.2727025      6176.8429      15311.365     -5438.178       15.524914     -1099.4128      24339.416     -19857.671      3382.3324      14.2         
     14400   18.962564      19438.545      1190.3347      20628.879      93.391218      164.06274     -137.13085      253.24176      0.0028758607   0.00288       -0.0025504616   0.00056065654  0.0028758607  -0.0025537196   0.00056049943  11.982583     -0.59522374     0.36932649     13.505881     -17.112072      8.2788972      58.760195      52.705343      60.912349      1              188644.1       1.27234        6161.8074      15323.591     -5420.8593      17.747439     -1107.9653      24321.604     -19857.38       3356.2582      14.4         
     14600   18.961678      19446.053      1190.2791      20636.332      2.6582317     -56.759064      5.7920807      58.941678      0.0029157451   0.00292       -0.0014145678  -0.00041709362  0.0029157451  -0.0014155693  -0.00041718063  13.360471     -0.031590152    0.82655684     7.8738759     -18.182682      9.1732281      58.762539      52.765364      60.852825      1              188681.9       1.2720851      6146.2619      15324.591     -5423.2229      16.92997      -1092.5306      24331.395     -19857.371      3381.4934      14.6         
     14800   19.020726      19451.917      1193.9857      20645.903      171.89869      38.039068      185.47753      292.17948      0.0029556278   0.00296       -0.002143432   -0.00021250509  0.0029556278  -0.0021457325  -0.00021252767  10.19618       0.30763591     0.69476609     10.939862     -14.698504      7.1768969      58.764883      52.726851      60.86528       1              188590.29      1.272703       6151.3598      15332.133     -5407.6107      16.573516     -1118.4901      24335.499     -19857.548      3359.4615      14.8         
     15000   18.888038      19446.664      1185.6565      20632.32      -76.387985     -33.655669      109.99392     -305.5022       0.002995509    0.003         -0.0023929185   0.0004766175   0.002995509   -0.0023957861   0.00047650395  14.91295       0.67066294    -1.7499283      7.691945      -15.782849      9.5238972      58.767226      52.713668      60.907233      1              188680.62      1.2720938      6145.6833      15321.765     -5439.3092      17.610069     -1083.4208      24342.254     -19857.92       3400.914       15           
     15200   18.960555      19456.821      1190.2086      20647.03      -113.56806     -366.08442      271.95557     -246.57532      0.0030353885   0.00304       -0.0018003232  -0.00022926488  0.0030353885  -0.0018019458  -0.00022929116  10.60967      -0.82868464     1.8950072      8.6475189     -19.05458       5.3055388      58.76957       52.74498       60.86426       1              188667.02      1.2721854      6172.316       15323.723     -5431.666       19.16606      -1091.1197      24321.724     -19857.322      3373.2825      15.2         
     15400   19.126444      19450.742      1200.622       20651.364     -253.77881     -462.33402     -239.77477     -59.227641      0.0030752665   0.00308       -0.0011656332   6.1982241e-07  0.0030752665  -0.0011663131   6.1982222e-07  17.401863     -0.12755544     0.1773918      11.056367     -22.52554       10.022706      58.771914      52.778518      60.878255      1              188837.92      1.2710341      6139.5558      15319.375     -5397.8908      14.713436     -1118.3157      24350.931     -19857.627      3374.9886      15.4         
     15600   18.909193      19446.446      1186.9845      20633.431     -64.518951     -172.03782     -50.879876      29.360842      0.0031151429   0.00312       -0.0014227528  -0.00060468006  0.0031151429  -0.0014237659  -0.00060486295  13.62688       0.13010342    -0.63317025     10.180513     -16.661623      6.1342408      58.774257      52.764931      60.841406      1              188682.56      1.2720807      6139.1707      15329.827     -5416.8865      15.300585     -1083.1509      24320.746     -19858.56       3379.0347      15.6         
     15800   19.151908      19448.1        1202.2204      20650.32      -128.44266     -242.03704     -91.424894     -51.866053      0.0031550177   0.00316       -0.0012398734  -0.00089423037  0.0031550177  -0.0012406427  -0.00089463043  12.276052      0.3601449     -1.1381839      10.247008     -18.736543      8.9542544      58.776601      52.774595      60.823778      1              188669.96      1.2721656      6143.8312      15345.576     -5416.8236      12.962715     -1111.2026      24330.481     -19856.724      3362.5536      15.8         
     16000   18.954214      19458.533      1189.8106      20648.344     -3.0319067     -14.947398     -58.598707      64.450385      0.0031948909   0.0032        -0.0024460264   9.1872981e-05  0.0031948909  -0.0024490228   9.1868761e-05  13.521368      1.1951653      0.41406668     12.859286     -17.013843      9.8245745      58.778945      52.710861      60.88381       1              188635.63      1.2723972      6189.984       15344.685     -5442.8635      16.169725     -1130.6495      24338.706     -19857.498      3350.558       16           
     16200   18.984097      19444.553      1191.6864      20636.24      -102.70005      9.213292      -125.03353     -192.2799       0.0032347625   0.00324       -0.0020832202  -0.00033439823  0.0032347625  -0.0020853931  -0.00033445415  12.101235     -2.7064896     -0.68901495     7.5870116     -16.708722      6.4071953      58.781288      52.730032      60.85786       1              188631.32      1.2724262      6144.6901      15324.744     -5408.4078      14.567116     -1096.96        24323.71      -19857.79       3368.96        16.2         
     16400   19.002919      19445.568      1192.8679      20638.436      97.761338     -87.644946      199.02593      181.90303      0.0032746325   0.00328       -0.0016160014  -0.00097313562  0.0032746325  -0.0016173086  -0.00097360943  18.294434      0.83243389    -0.28364759     8.9593377     -19.791462      8.1484831      58.783632      52.75472       60.818975      1              188606.58      1.2725932      6182.4722      15322.531     -5439.0206      17.05487      -1113.2722      24333.774     -19857.972      3362.5303      16.4         
     16600   19.035182      19459.368      1194.8931      20654.261     -3.2201187     -287.95709      3.6121551      274.68458      0.003314501    0.00332       -0.0017109098  -0.00018703612  0.003314501   -0.001712375   -0.00018705362  16.132868      0.18693291    -0.016373511    9.5194821     -21.777329      7.0011607      58.785976      52.749705      60.866831      1              188744.57      1.2716628      6174.9558      15340.625     -5438.3112      16.923988     -1104.1081      24327.273     -19857.991      3365.174       16.6         
     16800   18.915947      19446.198      1187.4085      20633.606      69.645047      141.65848      61.151575      6.1250886      0.0033543678   0.00336       -0.0025756641  -4.6939551e-05  0.0033543678  -0.0025789868  -4.6940653e-05  10.927471     -0.51396232    -2.2150337      12.07487      -15.410286      7.3082734      58.788319      52.704011      60.87536       1              188615.01      1.2725362      6188.8458      15319.385     -5455.7422      18.583851     -1098.1831      24330.628     -19857.319      3375.1259      16.8         
     17000   18.971119      19442.388      1190.8718      20633.26      -4.6139271     -396.84729      176.88839      206.11712      0.0033942331   0.0034        -0.0021567572   0.00024682002  0.0033942331  -0.0021590864   0.00024678956  15.930489     -1.0994713      2.3236085      11.095033     -19.314101      13.050629      58.790663      52.726146      60.893243      1              188757.19      1.2715778      6166.0761      15328.822     -5438.4855      13.869185     -1106.254       24335.899     -19857.539      3372.1064      17           
     17200   19.040179      19458.659      1195.2068      20653.866     -13.514251     -197.8313       168.91818     -11.629629      0.0034340967   0.00344       -0.0019484648  -0.00033059572  0.0034340967  -0.0019503655  -0.00033065038  15.648294      0.97376132     0.011842074    7.2151698     -18.181824      3.7476878      58.793007      52.737153      60.858091      1              188695.12      1.271996       6194.2872      15322.017     -5432.7364      15.904648     -1126.0763      24342.742     -19857.479      3359.1869      17.2         
     17400   18.890078      19444.129      1185.7846      20629.914     -106.53046     -103.46507      54.638981     -270.76529      0.0034739588   0.00348       -0.0023817378  -9.2293585e-05  0.0034739588  -0.0023845787  -9.2297845e-05  13.928974     -1.7521997      1.0582953      9.2335024     -16.472648      7.9469397      58.79535       52.714258      60.872599      1              188665.69      1.2721944      6166.4463      15330.355     -5401.7525      13.537638     -1134.9762      24328.298     -19857.779      3335.543       17.4         
     17600   18.876634      19449.914      1184.9407      20634.855     -27.180762      114.17967     -119.20691     -76.515054      0.0035138193   0.00352       -0.0017817451  -2.2044136e-05  0.0035138193  -0.0017833343  -2.2044379e-05  17.637829     -1.0014309     -1.5799598      4.7745491     -16.777069      3.946998       58.797694      52.745962      60.876875      1              188799.95      1.2712898      6156.1044      15329.102     -5408.9745      15.97501      -1116.281       24331.073     -19857.085      3357.7071      17.6         
     17800   19.084671      19451.921      1197.9997      20649.921      160.52496      99.769547      126.17272      255.63261      0.0035536782   0.00356       -0.002048971    3.7506049e-05  0.0035536782  -0.002051073    3.7505345e-05  18.594231      2.7214304      0.092279738    10.169645     -16.7348        10.831597      58.800038      52.731842      60.880501      1              188768.17      1.2715038      6189.5207      15328.797     -5458.6047      15.967764     -1086.2264      24320.599     -19858.133      3376.2399      17.8         
     18000   18.812263      19456.085      1180.8999      20636.985      54.82857      -314.32116      456.02482      22.78205       0.0035935355   0.0036        -0.0025055811   0.00044413147  0.0035935355  -0.0025087253   0.00044403287  8.3608613     -0.87467529     1.5944604      12.068194     -18.010052      10.099534      58.802381      52.707715      60.905255      1              188766.04      1.2715181      6178.8522      15345.782     -5435.065       17.849406     -1119.2609      24326.121     -19858.193      3348.6667      18           
     18200   19.038903      19444.512      1195.1268      20639.639      82.277206      198.39511     -1.7159828      50.152493      0.0036333912   0.00364       -0.0020184614   8.9923583e-05  0.0036333912  -0.0020205012   8.991954e-05   19.616959     -0.80149728    -0.45703139     11.001183     -16.13781       7.4404563      58.804725      52.733454      60.883692      1              188798.88      1.2712969      6181.4754      15295.889     -5419.4805      15.309654     -1102.723       24331.371     -19857.329      3371.3187      18.2         
     18400   18.919053      19448.626      1187.6034      20636.229     -192.62166     -432.51571     -167.27         21.92073       0.0036732454   0.00368       -0.0030203164   0.00063107619  0.0036732454  -0.0030248867   0.00063087715  17.535156      1.9163094     -0.27514034     11.058242     -16.154354      12.544789      58.807069      52.680516      60.916636      1              188718.93      1.2718355      6140.0512      15318.056     -5387.7198      15.750703     -1107.2775      24327.586     -19857.821      3362.4872      18.4         
     18600   18.920789      19436.638      1187.7124      20624.35      -143.16379     -267.24803     -171.17452      8.9311938      0.0037130979   0.00372       -0.0023774033  -0.00071883164  0.0037130979  -0.0023802338  -0.00071909013  12.800972     -2.1506954     -1.7762586      10.642734     -14.074414      8.5207419      58.809412      52.714487      60.834456      1              188593.39      1.2726822      6167.84        15317.467     -5430.391       14.638545     -1106.1417      24331.241     -19858.016      3367.0832      18.6         
     18800   18.924144      19458.16       1187.923       20646.083     -71.424863     -194.29607      168.19723     -188.17575      0.0037529489   0.00376       -0.0022452091  -0.00063479893  0.0037529489  -0.0022477334  -0.0006350005   18.451174     -0.29786713     0.0070239165   12.229268     -16.185586      10.647475      58.811756      52.721473      60.839572      1              188641.76      1.2723558      6165.9114      15346.336     -5437.9554      17.349373     -1108.6719      24332.472     -19857.282      3366.5182      18.8         
     19000   19.091272      19442.401      1198.4141      20640.815     -144.07154     -317.93677      5.076677      -119.35453      0.0037927982   0.0038        -0.0010305186  -0.0013352614   0.0037927982  -0.0010310499  -0.0013361536   18.053347      0.9672109      0.4353487      12.683988     -18.482722      9.662559       58.8141        52.785657      60.796929      1              188746.55      1.2716494      6176.0978      15334.939     -5425.6552      15.880827     -1116.46        24314.649     -19857.051      3341.1382      19           
     19200   19.102262      19425.269      1199.104       20624.373     -225.16756     -425.06382     -96.169597     -154.26926      0.003832646    0.00384       -0.0020419118  -0.00073010068  0.003832646   -0.0020439993  -0.00073036733  15.708072      1.3471754     -0.18114142     10.633955     -15.397698      7.8247872      58.816443      52.732215      60.83377       1              188677.24      1.2721166      6143.5231      15299.007     -5419.1627      13.870551     -1082.4377      24328.24      -19857.772      3388.0307      19.2         
     19400   19.024641      19445.994      1194.2315      20640.226     -66.204507      12.333248     -66.699084     -144.24768      0.0038724922   0.00388       -0.0023141968  -0.00048558859  0.0038724922  -0.0023168787  -0.00048570653  20.921916      0.75113852    -0.2218655      13.141284     -16.294974      4.8055715      58.818787      52.717827      60.848656      1              188679.43      1.2721018      6155.2165      15307.38      -5391.1274      17.226255     -1121.8582      24337.015     -19857.858      3357.2993      19.4         
     19600   19.011523      19449.912      1193.408       20643.32       174.9254       228.12177      156.58618      140.06826      0.0039123368   0.00392       -0.0027545085   0.00021663427  0.0039123368  -0.0027583092   0.00021661081  11.300406     -2.9585039     -0.37715349     9.5902702     -18.341468      8.3235714      58.821131      52.694561      60.891406      1              188736.18      1.2717193      6164.6612      15347.388     -5448.2029      15.559827     -1109.1335      24337.876     -19858.237      3370.5055      19.6         
     19800   18.899674      19452.721      1186.3869      20639.108     -314.69051     -457.97974     -190.39418     -295.6976       0.0039521798   0.00396       -0.0021375436  -0.0001260622   0.0039521798  -0.0021398314  -0.00012607015  20.487648      0.88090447     1.5209567      8.4337609     -17.294962      11.257669      58.823474      52.727162      60.870543      1              188795.76      1.2713179      6140.1057      15329.262     -5410.0553      16.678818     -1090.819       24324.459     -19856.91       3376.7296      19.8         
     20000   18.864766      19433.949      1184.1956      20618.145      5.3872243     -46.669416      182.65482     -119.82373      0.0039920213   0.004         -0.0025702803  -0.00086452437  0.0039920213  -0.0025735892  -0.00086489828  19.122758     -1.3070229     -1.2566758      5.8163474     -18.343706      10.437815      58.825818      52.704296      60.825587      1              188582.03      1.2727588      6158.4331      15319.784     -5434.0772      15.013284     -1093.3681      24326.245     -19858.081      3374.7957      20           
     20200   19.061695      19445.348      1196.5575      20641.905     -255.19646     -514.03718     -95.669355     -155.88284      0.0040318611   0.00404       -0.0018475658  -0.00035801896  0.0040318611  -0.0018492747  -0.00035808306  14.976122      1.856746      -0.81306713     10.223308     -18.664622      8.4040305      58.828162      52.742484      60.856422      1              188821.86      1.2711422      6171.781       15316.279     -5397.6051      16.441682     -1115.7455      24312.75      -19858.553      3338.4513      20.2         
     20400   19.064253      19448.228      1196.718       20644.946     -94.773652     -458.16675      136.37272      37.473068      0.0040716994   0.00408       -0.0023672459   7.9191713e-05  0.0040716994  -0.0023700523   7.9188577e-05  18.296105     -0.96214513     1.7612724      10.40034      -14.812199      7.7340812      58.830505      52.715024      60.883038      1              188813.61      1.2711977      6159.223       15343.467     -5440.7402      16.069747     -1101.6721      24329.755     -19857.874      3370.2084      20.4         
     20600   18.978387      19437.443      1191.328       20628.771     -142.78117     -141.27321     -75.69943      -211.37087      0.004111536    0.00412       -0.002658542    0.00011715707  0.004111536   -0.0026620822   0.00011715021  20.077332      0.59046328    -2.0157905      7.4912071     -18.680701      7.0738396      58.832849      52.699632      60.88535       1              188773.17      1.2714701      6182.2671      15294.315     -5425.4936      15.598319     -1092.7322      24321.244     -19857.756      3370.756       20.6         
     20800   19.050274      19438.655      1195.8405      20634.495      57.640637     -41.561141      116.82089      97.662159      0.0041513711   0.00416       -0.0023017333   0.00024557271  0.0041513711  -0.0023043864   0.00024554256  13.576306      0.11654903     2.1951059      6.6320101     -17.457627      5.7886097      58.835193      52.718486      60.893167      1              188872.48      1.2708016      6163.6714      15342.737     -5428.3714      16.642965     -1132.8025      24333.355     -19856.577      3343.9754      20.8         
     21000   19.045299      19451.065      1195.5282      20646.593     -54.326718     -301.91035     -75.710857      214.64105      0.0041912046   0.0042        -0.0026713521  -0.00075246904  0.0041912046  -0.0026749265  -0.00075275228  18.983849     -0.70004978    -0.29317754     6.8650634     -19.53854       9.2441307      58.837536      52.698955      60.832408      1              188621.63      1.2724916      6166.9433      15328.546     -5413.8311      16.214138     -1120.3562      24331.412     -19857.863      3353.1922      21           
     21200   18.866163      19445.754      1184.2833      20630.037      179.09261      240.27956      155.64036      141.35792      0.0042310365   0.00424       -0.0026798137  -0.00092729219  0.0042310365  -0.0026834108  -0.00092772239  19.122539      0.77935527    -1.3481148      9.5578411     -20.51802       7.2771224      58.83988       52.698508      60.821766      1              188594.54      1.2726744      6165.435       15351.313     -5438.0534      16.677985     -1124.5539      24332.312     -19857.378      3350.3807      21.2         
     21400   18.986844      19445.11       1191.8589      20636.969     -56.412265      18.939792     -108.64366     -79.532925      0.0042708669   0.00428       -0.0024062107  -0.00041955068  0.0042708669  -0.0024091103  -0.00041963872  13.539111     -2.7163825      0.78006291     9.6436277     -14.679258      8.8995595      58.842223      52.712965      60.852676      1              188749.67      1.2716284      6180.1844      15333.204     -5434.0595      15.364415     -1127.7787      24335.285     -19857.09       3350.4163      21.4         
     21600   18.909994      19454.413      1187.0348      20641.447     -158.00723     -226.77746     -50.084871     -197.15937      0.0043106956   0.00432       -0.0022766889  -0.00058825065  0.0043106956  -0.0022792845  -0.00058842374  16.665326      0.16479125    -0.040197331    13.389683     -19.301033      6.8237096      58.844567      52.719809      60.842406      1              188749.84      1.2716273      6158.2812      15311.162     -5367.0203      13.528082     -1130.6797      24327.313     -19858.172      3338.4613      21.6         
     21800   19.056353      19453.806      1196.2221      20650.028     -160.15007     -181.27217     -349.50677      50.328728      0.0043505227   0.00436       -0.0015657541  -0.0012965079   0.0043505227  -0.0015669811  -0.0012973491   19.724863      2.0293597     -0.61002686     10.219754     -13.821926      10.581762      58.846911      52.757375      60.799288      1              188757.99      1.2715723      6163.2123      15331.009     -5416.7798      14.951485     -1112.1717      24331.014     -19857.429      3361.4135      21.8         
     22000   19.034135      19442.335      1194.8274      20637.162     -144.10161     -427.62221      91.340803     -96.02342       0.0043903483   0.0044        -0.001991138   -0.00095344511  0.0043903483  -0.0019931229  -0.00095389993  18.05207      -0.82118228     0.67724442     10.000382     -15.124496      10.591826      58.849254      52.734898      60.820173      1              188749.9       1.2716269      6152.243       15322.508     -5383.5066      15.24076      -1137.5884      24331.573     -19858.135      3335.8494      22           
     22200   18.952894      19442.844      1189.7277      20632.571     -201.39672     -293.43383     -256.69806     -54.058261      0.0044301723   0.00444       -0.0025815614  -0.00010917418  0.0044301723  -0.0025848994  -0.00010918014  16.336651      0.92546053    -1.5140112      11.063397     -18.949539      8.7552479      58.851598      52.7037        60.871571      1              188805.17      1.2712546      6141.4562      15301.945     -5376.4425      17.913838     -1109.4051      24324.769     -19857.393      3357.9709      22.2         
     22400   19.015043      19452.595      1193.629       20646.224     -73.851634     -364.0127       11.634368      130.82343      0.0044699947   0.00448       -0.0029418486  -9.6684027e-05  0.0044699947  -0.0029461844  -9.6688701e-05  21.893049     -1.4157367      2.1701434      11.825521     -17.880352      11.01551       58.853942      52.684662      60.872331      1              188746.84      1.2716475      6159.7561      15323.116     -5412.1321      15.027185     -1112.4855      24337.451     -19858.138      3366.8277      22.4         
     22600   19.038843      19448.917      1195.123       20644.04      -112.85491     -100.23316     -220.13974     -18.191816      0.0045098155   0.00452       -0.0019315794  -0.00082134463  0.0045098155  -0.0019334473  -0.00082168212  19.86931       1.2597203     -1.9782635      8.452647      -18.758145      8.6844406      58.856285      52.738045      60.828215      1              188808.68      1.271231       6180.3364      15301.242     -5434.7409      14.976179     -1083.4827      24327.687     -19857.1        3387.1041      22.6         
     22800   18.875153      19444.78       1184.8477      20629.628     -129.8954      -450.08927      95.21277      -34.809694      0.0045496347   0.00456       -0.0020862562  -0.00048847966  0.0045496347  -0.0020884355  -0.000488599    18.875632     -1.3924947     -0.90248864     10.516822     -16.649923      8.6290715      58.858629      52.729872      60.84848       1              188849.83      1.270954       6164.5347      15325.521     -5402.3359      15.833127     -1126.4533      24325.388     -19857.707      3341.227       22.8         
     23000   19.25068       19444.045      1208.4206      20652.465     -114.95828     -230.42275     -85.432545     -29.019535      0.0045894523   0.0046        -0.002450734   -0.00051775884  0.0045894523  -0.0024537419  -0.00051789292  25.881601     -1.0149641      0.79574627     11.159413     -16.66608       6.731003       58.860973      52.710613      60.846697      1              188782.84      1.271405       6157.2909      15319.581     -5417.7373      15.71397      -1109.017       24336.49      -19858.277      3369.1959      23           
     23200   19.004592      19445.237      1192.9729      20638.21       88.178196      89.537419      139.97737      35.0198        0.0046292684   0.00464       -0.0020912623  -0.0011309481   0.0046292684  -0.002093452   -0.0011315881   23.454365     -0.55011173    -0.60978696     9.9929052     -16.918281      10.144807      58.863316      52.729607      60.809367      1              188742.52      1.2716766      6165.8988      15340.662     -5446.8804      16.318503     -1114.2214      24341.02      -19857.56       3369.2384      23.2         
     23400   18.946439      19443.733      1189.3225      20633.055      98.57263      -26.181736      240.16719      81.732434      0.0046690828   0.00468       -0.0025926858  -0.0012887119   0.0046690828  -0.0025960526  -0.001289543    20.886162      3.5770266     -0.45529867     6.8662407     -16.785752      8.7189058      58.86566       52.703112      60.799763      1              188625.4       1.2724662      6153.8394      15317.59      -5429.8151      16.675236     -1082.8212      24324.857     -19856.593      3385.4429      23.4         
     23600   18.994505      19456.84       1192.3398      20649.179     -107.75998     -213.98709     -57.489617     -51.803238      0.0047088957   0.00472       -0.0030937504   0.00017272213  0.0047088957  -0.0030985459   0.00017270722  22.155435     -2.9525445      1.7989686      13.693387     -20.249158      7.7049073      58.868004      52.676636      60.888732      1              188814.03      1.2711949      6189.3824      15309.034     -5408.9161      16.1328       -1116.0266      24324.747     -19857.514      3351.2063      23.6         
     23800   18.996073      19459.484      1192.4382      20651.922      23.096794     -93.256133     -43.588607      206.13512      0.004748707    0.00476       -0.002639891   -0.00031752017  0.004748707   -0.0026433816  -0.00031757059  29.378055      1.1490999     -0.98498178     9.2418184     -18.676094      8.691053       58.870347      52.700618      60.858887      1              188814.92      1.2711889      6166.9595      15324.101     -5421.4805      16.087554     -1097.4056      24329.287     -19858.064      3373.8168      23.8         
     24000   18.966322      19439.885      1190.5706      20630.455      0.61490987     20.712358     -205.8104       186.94277      0.0047885167   0.0048        -0.0029100055  -0.00059883793  0.0047885167  -0.0029142478  -0.00059901731  22.3018       -0.6419875     -0.47776069     10.195465     -16.594681      6.5658733      58.872691      52.686345      60.841761      1              188718.18      1.2718406      6154.2812      15314.303     -5425.5345      17.033346     -1092.8397      24329.713     -19857.071      3379.802       24           
     24200   19.085192      19451.579      1198.0324      20649.611      32.926575      164.13349     -15.864509     -49.489259      0.0048283249   0.00484       -0.0028292412  -0.0010658488   0.0048283249  -0.002833251   -0.0010664172   19.305095      0.38814616     0.70883402     11.221732     -14.759795      9.7372916      58.875035      52.690612      60.81333       1              188652.78      1.2722815      6158.1998      15320.654     -5407.8182      13.065138     -1090.9039      24316.293     -19857.911      3367.4783      24.2         
     24400   18.927841      19453.488      1188.1551      20641.643     -372.86851     -615.67703     -412.40062     -90.527881      0.0048681314   0.00488       -0.0025387468  -0.00094462816  0.0048681314  -0.0025419749  -0.0009450746   17.750928      0.51738916    -1.66147        8.7841715     -20.513594      8.7683677      58.877378      52.705962      60.82071       1              188738.15      1.271706       6165.8666      15346.289     -5388.9149      15.983713     -1165.7387      24336.971     -19856.969      3314.2637      24.4         
     24600   18.95658       19445.068      1189.9591      20635.027     -125.21528     -405.88396     -167.7039       197.94204      0.0049079364   0.00492       -0.0027213795  -0.00047269817  0.0049079364  -0.0027250892  -0.00047280993  23.802688     -2.5059238      1.4715701      8.9754747     -16.762457      3.8646422      58.879722      52.696312      60.84944       1              188800.25      1.2712877      6154.8624      15323.944     -5422.6309      16.945665     -1099.8594      24329.147     -19857.341      3371.9466      24.6         
     24800   18.951574      19453.035      1189.6449      20642.68       86.809704      258.57127      26.626359     -24.768523      0.0049477397   0.00496       -0.0026576331  -0.00053847136  0.0049477397  -0.0026611709  -0.00053861639  21.484443      0.23295906    -1.25538        10.790786     -15.98035       9.0423516      58.882066      52.69968       60.845436      1              188807.41      1.2712395      6198.4408      15333.786     -5450.37        15.51435      -1122.6873      24335.777     -19857.427      3355.6631      24.8         
     25000   19.049318      19456.164      1195.7805      20651.944     -109.07441     -105.72147     -234.37658      12.874817      0.0049875415   0.005         -0.0026920084  -0.00047484744  0.0049875415  -0.0026956384  -0.00047496021  24.449814      0.8340655     -1.1190605      7.2399683     -15.375731      9.1985975      58.884409      52.697864      60.84931       1              188820.43      1.2711518      6174.0959      15322.413     -5429.76        16.966143     -1083.099       24313.184     -19857.636      3372.4493      25           
     25200   19.019925      19436.229      1193.9355      20630.165     -32.696384     -101.42416     -255.04519      258.3802       0.0050273417   0.00504       -0.0034982226   0.00022303681  0.0050273417  -0.0035043557   0.00022301194  22.771229      1.5660939      1.6875793      10.522763     -21.64706       7.7531626      58.886753      52.655263      60.891795      1              188807.04      1.271242       6174.7591      15306.489     -5419.267       15.890398     -1111.6482      24328.132     -19858.126      3358.3581      25.2         
     25400   18.877659      19458.568      1185.005       20643.573      64.027221     -166.36198     -36.185093      394.62874      0.0050671403   0.00508       -0.0029151982  -0.00071384447  0.0050671403  -0.0029194556  -0.00071409938  26.429254     -2.689542       0.24745811     12.161561     -14.171214      10.678128      58.889097      52.68607       60.83476       1              188748.06      1.2716392      6158.2643      15335.732     -5435.6034      15.187685     -1092.8128      24334.376     -19856.576      3384.9867      25.4         
     25600   19.132771      19450.248      1201.0191      20651.267      133.47548     -343.85461      349.03988      395.24115      0.0051069374   0.00512       -0.0031141935  -0.00056499273  0.0051069374  -0.0031190527  -0.0005651524   24.253805      0.29417944    -1.2903574      9.019311      -21.095169      6.5509192      58.89144       52.675555      60.843822      1              188746.01      1.271653       6168.0988      15349.749     -5441.8057      15.638583     -1122.8669      24338.914     -19857.48       3358.5667      25.6         
     25800   18.948052      19442.527      1189.4237      20631.951     -87.297235     -210.36013     -162.38761      110.85604      0.0051467328   0.00516       -0.0023786752  -0.00098748883  0.0051467328  -0.0023815088  -0.00098797671  21.030828      1.4206615     -0.31600476     13.973195     -18.816181      6.9716227      58.893784      52.71442       60.818101      1              188812.94      1.2712023      6149.8953      15321.994     -5407.2488      16.482655     -1103.9771      24323.688     -19858.306      3361.4042      25.8         
     26000   18.87169       19456.177      1184.6303      20640.807     -69.178333     -55.401652     -170.57726      18.443913      0.0051865267   0.0052        -0.0029025945  -0.00078063629  0.0051865267  -0.0029068152  -0.00078094114  24.224423     -0.17845709     0.034702991    11.520695     -17.79942       9.2728108      58.896128      52.686736      60.830694      1              188760.36      1.2715563      6163.943       15330.162     -5419.6541      15.396399     -1107.8106      24331.111     -19856.971      3366.329       26           
     26200   18.908688      19461.755      1186.9528      20648.708     -191.99509     -511.72609      86.086666     -150.34584      0.005226319    0.00524       -0.0019444275  -0.0011752809   0.005226319   -0.0019463203  -0.0011759721   23.268652     -2.6188325      0.072957491    10.149257     -18.157379      8.1560044      58.898471      52.737366      60.806668      1              188874.65      1.270787       6153.3532      15322.446     -5399.85        17.127023     -1099.1782      24325.699     -19857.841      3368.6791      26.2         
     26400   19.105874      19431.297      1199.3307      20630.627     -291.21743     -694.51043      41.839808     -220.98166      0.0052661097   0.00528       -0.0021891342  -0.0013025352   0.0052661097  -0.0021915338  -0.0013033842   23.04023       1.2459315      0.75074817     10.189868     -16.599235      10.892085      58.900815      52.724436      60.798921      1              188811.79      1.27121        6203.6199      15317.415     -5444.9875      15.553533     -1124.1967      24322.039     -19858.147      3339.6952      26.4         
     26600   18.898161      19459.922      1186.292       20646.214     -122.07596     -205.33971      48.897169     -209.78535      0.0053058988   0.00532       -0.0024531509  -0.0014639259   0.0053058988  -0.0024561648  -0.0014649985   31.233353     -0.061916038    0.081529985    8.8353213     -14.42431       8.9014048      58.903159      52.710485      60.789096      1              188738.84      1.2717014      6149.5619      15316.366     -5379.9991      17.360858     -1112.2789      24326.35      -19857.44       3356.6318      26.6         
     26800   19.044724      19455.026      1195.4922      20650.518      9.7790379     -216.8525       63.280866      182.90875      0.0053456863   0.00536       -0.0015885677  -0.001470593    0.0053456863  -0.0015898308  -0.0014716754   22.544168      1.1524193      0.12417367     7.8879004     -20.261127      7.0028414      58.905502      52.75617       60.78869       1              188908.68      1.270558       6173.9925      15326.441     -5429.2746      13.797211     -1104.0582      24331.268     -19857.14       3370.0703      26.8         
     27000   18.991905      19437.03       1192.1766      20629.207     -131.77422     -386.04618     -35.459684      26.18321       0.0053854723   0.0054        -0.0027916341  -0.00084144247  0.0053854723  -0.002795538   -0.00084179669  26.835036     -1.6153928     -2.7893736      7.8602456     -16.273322      8.4360267      58.907846      52.692599      60.826992      1              188807.44      1.2712393      6140.542       15335.219     -5414.2761      15.712691     -1105.6036      24323.227     -19857.791      3359.8325      27           
     27200   18.823739      19454.649      1181.6203      20636.269     -315.60131     -496.26673     -260.78951     -189.7477       0.0054252566   0.00544       -0.0021816798  -0.0007303443   0.0054252566  -0.0021840631  -0.00073061114  21.61533       0.22438497    -0.72036122     10.091263     -15.235774      6.9676302      58.91019       52.72483       60.833755      1              188951.45      1.2702704      6152.4482      15329.984     -5402.5337      16.429583     -1124.933       24340.739     -19857.486      3358.3206      27.2         
     27400   19.118443      19441.563      1200.1197      20641.683     -412.99927     -638.47644     -414.84561     -185.67577      0.0054650394   0.00548       -0.0026769221  -0.00075668994  0.0054650394  -0.0026805115  -0.00075697637  29.660879     -2.4423427      2.9534686      9.3222798     -17.269373      10.053682      58.912533      52.698661      60.832151      1              188860.2       1.2708842      6137.7051      15332.675     -5392.5908      15.263126     -1123.2753      24329.256     -19857.47       3348.5111      27.4         
     27600   18.9689        19440.388      1190.7324      20631.12       67.569346     -127.91627     -31.557256      362.18156      0.0055048206   0.00552       -0.0021273539  -0.001866917    0.0055048206  -0.0021296199  -0.0018686618   23.140017      0.98074991    -1.7147077      14.100375     -20.249333      5.1269573      58.914877      52.7277        60.764563      1              188761.83      1.2715465      6142.3794      15321.395     -5425.1991      16.399623     -1096.1421      24339.13      -19857.575      3385.413       27.6         
[...]
     36200   18.800571      19454.213      1180.166       20634.379     -191.80896     -232.46669     -243.81523     -99.144977      0.007213917    0.00724       -0.0034634318  -0.0015224782   0.007213917   -0.0034694434  -0.0015236384   32.986944      0.80097782    -1.7060534      14.025722     -15.433311      8.9284327      59.015654      52.657102      60.785532      1              188896.71      1.2706385      6143.5999      15295.931     -5388.8672      13.016919     -1094.742       24342.405     -19857.131      3390.5317      36.2         
     36400   19.238839      19439.301      1207.6773      20646.978     -259.85714     -398.33767     -260.87747     -120.35629      0.0072536287   0.00728       -0.0034134073  -0.0013665636   0.0072536287  -0.0034192462  -0.0013674982   32.516213      1.772006       0.13738788     9.9465871     -14.906188      9.2762868      59.017998      52.659745      60.795023      1              188943.19      1.2703259      6216.1908      15303.265     -5427.2227      12.623985     -1133.1773      24325.626     -19858.006      3334.4435      36.4         
     36600   19.047768      19450.442      1195.6832      20646.125     -90.749116     -554.25208      153.66877      128.33597      0.0072933388   0.00732       -0.0035601531  -0.0014867531   0.0072933388  -0.0035665055  -0.0014878594   41.976231     -3.1007679     -0.47010778     7.4079915     -17.61327       10.10419       59.020342      52.651991      60.787707      1              188900.14      1.2706155      6185.6192      15320.354     -5425.8177      15.767061     -1110.6115      24322.631     -19857.501      3354.5188      36.6         
     36800   18.878494      19456.832      1185.0574      20641.89       188.19904     -134.42845      287.18329      411.84228      0.0073330474   0.00736       -0.0042631951  -0.00085629329  0.0073330474  -0.0042723085  -0.00085666012  38.657567     -0.30378875    -0.38396174     14.44107      -12.909699      6.7232657      59.022685      52.614842      60.826088      1              188893.55      1.2706598      6197.3622      15313.243     -5439.1945      17.901632     -1093.9844      24319.301     -19857.796      3367.5204      36.8         
     37000   19.081298      19468.991      1197.788       20666.779     -68.57681      -441.73734     -46.758042      282.76495      0.0073727543   0.0074        -0.0038497452  -0.0011006925   0.0073727543  -0.0038571745  -0.0011012987   35.811572     -1.3530883      1.4716557      9.2923239     -18.538275      8.3807202      59.025029      52.636689      60.811209      1              188933.26      1.2703928      6178.532       15306.776     -5423.71        13.495453     -1077.8836      24329.427     -19857.646      3393.8978      37           
     37200   19.152848      19444.554      1202.2794      20646.834      12.182455     -175.04808      127.80573      83.789717      0.0074124597   0.00744       -0.0038287337  -0.0010001139   0.0074124597  -0.003836082   -0.0010006144   35.661749      0.9985096     -0.11593967     6.0723416     -19.853255      8.2009593      59.027372      52.637799      60.817332      1              188963.77      1.2701876      6176.2148      15332.067     -5450.9038      15.449847     -1099.0859      24328.432     -19857.62       3371.7263      37.2         
     37400   18.963783      19444.56       1190.4112      20634.972     -48.688377     -308.58655      150.83597      11.68545       0.0074521635   0.00748       -0.0032268366  -0.0019691482   0.0074521635  -0.003232054   -0.0019710895   35.667186      0.8415069      0.59353994     13.208802     -17.481707      9.8014714      59.029716      52.669603      60.758339      1              188902.03      1.2706027      6156.4232      15350.425     -5423.6409      13.288786     -1122.401       24327.758     -19857.292      3348.0646      37.4         
     37600   19.0386        19461.914      1195.1077      20657.021     -214.89921     -700.48485      28.996491      26.790732      0.0074918658   0.00752       -0.0030667561  -0.0012160543   0.0074918658  -0.0030714683  -0.0012167943   31.678941     -0.062507493   -1.8047576      8.7534505     -18.066272      8.3471362      59.03206       52.678062      60.804186      1              189082.44      1.2693904      6173.9776      15332.406     -5416.9882      16.876158     -1120.5015      24333.501     -19857.358      3355.6416      37.6         
     37800   19.087296      19450.509      1198.1645      20648.674     -252.42832     -307.31403     -421.15646     -28.814476      0.0075315664   0.00756       -0.0037068153  -0.0016629037   0.0075315664  -0.0037137026  -0.0016642879   36.761125     -0.32970707     1.9995113      11.567626     -23.937134      10.631554      59.034403      52.644241      60.776983      1              188884.01      1.270724       6129.0641      15310.509     -5373.7874      13.334744     -1106.4023      24336.129     -19858.338      3371.3889      37.8         
     38000   18.905873      19451.443      1186.7761      20638.219      127.45278     -114.11966      363.03018      133.44783      0.0075712655   0.0076        -0.0039278559  -0.0019237002   0.0075712655  -0.0039355902  -0.0019255529   37.641653      0.085643862   -3.4065951      13.244854     -14.843651      7.1839885      59.036747      52.632561      60.761106      1              188800.26      1.2712876      6169.1512      15331.058     -5424.8986      14.727574     -1108.7604      24327.934     -19857.768      3361.4053      38           
     38200   19.212007      19442.424      1205.993       20648.417     -308.01968     -620.33629     -224.37182     -79.350934      0.007610963    0.00764       -0.0032467723  -0.0014279628   0.007610963   -0.0032520545  -0.0014289833   40.012459      0.98235527     3.6145155      7.6371736     -13.820331      7.3433214      59.039091      52.66855       60.791286      1              189030.7       1.2697379      6158.9718      15339.386     -5414.9532      16.536272     -1127.1801      24327.527     -19857.864      3342.4827      38.2         
     38400   19.174279      19454.619      1203.6247      20658.244     -206.25089     -775.21862     -75.126606      231.59255      0.0076506589   0.00768       -0.00414698    -0.0019664244   0.0076506589  -0.0041556026  -0.0019683604   35.454635     -1.3780651     -3.7134282      8.4006319     -19.048577      9.0344103      59.041434      52.620983      60.758505      1              188765.64      1.2715208      6160.3337      15320.494     -5398.0905      14.767131     -1108.7164      24322.828     -19856.996      3357.1147      38.4         
     38600   19.036304      19441.192      1194.9636      20636.155     -200.31881     -275.90032     -52.102994     -272.95313      0.0076903533   0.00772       -0.0037116241  -0.0011407178   0.0076903533  -0.0037185293  -0.0011413689   38.539374     -0.44269263     1.7687397      8.634232      -17.86395       7.7883298      59.043778      52.643987      60.808773      1              189011.9       1.2698642      6183.3099      15317.648     -5427.9012      14.153738     -1115.5384      24326.612     -19857.092      3353.9809      38.6         
     38800   19.173848      19450.544      1203.5976      20654.142     -73.943626     -368.88081      240.808       -93.758069      0.0077300461   0.00776       -0.0031609296  -0.0019888063   0.0077300461  -0.0031659359  -0.0019907866   36.24004      -0.55209518    -0.55402251     10.277387     -18.049238      6.3261484      59.046122      52.673086      60.757142      1              188963.31      1.2701907      6151.2555      15299.952     -5391.0275      16.747254     -1091.4551      24322.377     -19857.306      3373.6167      38.8         
     39000   19.000214      19450.938      1192.6982      20643.636     -149.76582     -444.17407      78.878675     -84.002076      0.0077697373   0.0078        -0.0027633754  -0.0019087115   0.0077697373  -0.0027672006  -0.0019105354   35.743354     -0.0025057482  -0.71275667     7.1934603     -14.070783      6.4169703      59.048465      52.694093      60.762018      1              189061.34      1.2695321      6143.2628      15317.915     -5403.6396      14.607043     -1107.4275      24344.258     -19858.038      3378.792       39           
     39200   18.916305      19447.152      1187.4309      20634.582     -227.87791     -201.94952     -276.27603     -205.40817      0.0078094269   0.00784       -0.0036863872  -0.0017122473   0.0078094269  -0.0036931987  -0.0017137148   39.148577      1.7410318     -1.1003112      8.8032751     -19.974391      10.235625      59.050809      52.645321      60.773979      1              188931.03      1.2704077      6148.7391      15326.465     -5411.1233      14.407175     -1097.2552      24323.964     -19858.046      3368.6637      39.2         
     39400   18.970004      19460.003      1190.8018      20650.805      1.2724298     -58.730449      73.481798     -10.93406       0.0078491149   0.00788       -0.0043052191  -0.0014382733   0.0078491149  -0.0043145133  -0.0014393087   33.054886     -2.5710364      1.7308157      6.6792203     -16.906441      9.5522877      59.053153      52.612621      60.790658      1              188873         1.2707981      6172.2903      15301.353     -5391.4948      15.406545     -1108.2924      24328.849     -19858.108      3362.4482      39.4         
     39600   19.235553      19461.049      1207.4711      20668.52      -80.017411      74.692971     -325.67403      10.928823      0.0078888014   0.00792       -0.004008122   -0.0015793717   0.0078888014  -0.0040161761  -0.0015806203   30.862286      2.4046338     -0.51074917     10.923228     -18.348198      6.0878378      59.055496      52.62832       60.782068      1              188910.16      1.2705481      6171.4962      15304.14      -5398.6097      15.857287     -1100.4137      24326.267     -19857.688      3368.1656      39.6         
     39800   19.035719      19446.717      1194.9269      20641.643     -226.98378     -551.87578     -276.1178       147.04223      0.0079284863   0.00796       -0.0038561613  -0.0017478281   0.0079284863  -0.0038636155  -0.0017493573   42.403054     -1.153778       0.88540865     9.6671134     -18.317535      7.3745425      59.05784       52.63635       60.771813      1              188914.6       1.2705182      6153.7177      15321.489     -5434.9813      15.453428     -1068.7613      24317.161     -19857.363      3391.0376      39.8         
     40000   18.969255      19454.113      1190.7548      20644.868     -258.98834     -494.12481     -204.17599     -78.664215      0.0079681696   0.008         -0.0035023085  -0.0017226652   0.0079681696  -0.0035084559  -0.0017241507   33.255001      0.1013272     -2.4020791      11.120114     -18.570747      7.9581547      59.060184      52.655047      60.773345      1              188993.97      1.2699847      6137.3172      15310.971     -5382.1531      14.059578     -1095.4511      24327.368     -19857.998      3373.9188      40           
     40200   19.001738      19464.143      1192.7938      20656.936     -97.408147     -318.29262     -123.70661      149.77479      0.0080078514   0.00804       -0.0042253097  -0.0014986421   0.0080078514  -0.0042342615  -0.0014997662   36.498966     -1.3185574     -0.21003552     11.551974     -16.16479       7.7751032      59.062527      52.616844      60.786983      1              188906.72      1.2705712      6170.8252      15326.144     -5419.8377      15.648314     -1103.2386      24332.157     -19857.555      3371.3633      40.2         
     40400   18.970587      19439.636      1190.8384      20630.474     -383.91525     -817.21249     -280.51605     -54.017197      0.0080475316   0.00808       -0.0039635728  -0.0019196276   0.0080475316  -0.0039714486  -0.0019214724   42.307994      1.7353269      0.64803801     10.524111     -17.632078      8.7082619      59.064871      52.630674      60.761354      1              188884.2       1.2707227      6135.3678      15317.715     -5397.6383      13.933477     -1105.684       24333.526     -19857.584      3370.258       40.4         
     40600   19.034853      19452.676      1194.8725      20647.549     -388.45719     -637.42317     -295.20784     -232.74054      0.0080872102   0.00812       -0.0028468351  -0.001710086    0.0080872102  -0.002850895   -0.0017115499   45.487552     -1.9876043      0.85315623     10.679743     -16.69038       10.940441      59.067215      52.689683      60.77411       1              189143.18      1.2689828      6180.2732      15349.935     -5428.8894      18.095138     -1145.0979      24335.954     -19857.593      3333.2623      40.6         
     40800   18.96913       19461.402      1190.7469      20652.149     -130.39393     -691.51796      233.55883      66.777345      0.0081268872   0.00816       -0.0027296278  -0.0026585921   0.0081268872  -0.00273336    -0.0026621325   38.979781      0.83516667    -0.29476888     14.311206     -19.014693      9.3067403      59.069558      52.695876      60.716367      1              188993.18      1.26999        6169.9634      15321.303     -5420.1614      15.209206     -1092.1321      24325.286     -19858.065      3375.0882      40.8         
     41000   18.774738      19448.536      1178.5444      20627.081     -16.57001      -279.01344      106.11067      123.19275      0.0081665627   0.0082        -0.003431714   -0.0021030069   0.0081665627  -0.0034376158  -0.0021052213   38.676557      0.30045058    -1.2337176      12.045911     -14.02948       7.8308066      59.071902      52.658778      60.75019       1              188972.83      1.2701267      6168.1982      15315.481     -5416.3472      15.466095     -1098.9427      24323.011     -19858.33       3365.7379      41           
     41200   18.977381      19458.285      1191.2648      20649.549     -41.018964     -207.57465     -67.296575      151.81433      0.0082062365   0.00824       -0.0043543857  -0.00061136647  0.0082062365  -0.0043638936  -0.00061155343  37.079149     -0.2978322      0.57246224     6.5905097     -14.995819      11.575885      59.074246      52.610023      60.840999      1              189087.58      1.2693559      6168.9927      15345.972     -5420.9282      13.941789     -1123.875       24330.918     -19856.737      3350.3062      41.2         
     41400   18.97998       19449.794      1191.428       20641.222     -142.00399     -514.03348      0.39262268     87.628882      0.0082459089   0.00828       -0.0041099311  -0.0022404816   0.0082459089  -0.0041184001  -0.0022429953   38.978458     -0.97078345     0.89171654     9.3527506     -19.419878      7.7995221      59.076589      52.622941      60.741821      1              188833.19      1.2710659      6168.0869      15314.804     -5410.6945      17.364676     -1096.0805      24314.245     -19857.932      3360.233       41.4         
     41600   18.866211      19443.776      1184.2864      20628.062     -103.59299     -283.09172      25.688146     -53.375383      0.0082855796   0.00832       -0.004502819   -0.0014659147   0.0082855796  -0.0045129872  -0.0014669902   36.553774      1.0910561      0.71152103     8.5387612     -21.624335      7.4507675      59.078933      52.60218       60.788975      1              188912.72      1.2705308      6190.2877      15311.029     -5431.3304      16.050757     -1105.9866      24321.283     -19857.558      3357.7386      41.6         
     41800   18.966083      19452.677      1190.5556      20643.233      28.182039     -269.46411      292.31377      61.69645       0.0083252487   0.00836       -0.0038661923  -0.0021514166   0.0083252487  -0.0038736853  -0.0021537343   37.379637     -1.813857      -2.2316486      8.8307435     -17.406608      9.6744179      59.081277      52.63582       60.747243      1              188911.26      1.2705407      6151.5628      15306.99      -5416.8187      15.893919     -1076.3769      24329.236     -19857.81       3395.0491      41.8         
     42000   18.994957      19456.863      1192.3681      20649.231     -127.46811     -536.52957      142.90228      11.222964      0.0083649163   0.0084        -0.0034667312  -0.002320681    0.0083649163  -0.0034727543  -0.0023233779   38.630911      1.3359044      1.4458495      7.2780074     -16.170879      10.058535      59.08362       52.656927      60.736938      1              188962.45      1.2701965      6186.0623      15303.918     -5402.1817      18.156432     -1112.9199      24321.501     -19857.673      3350.9085      42           
     42200   18.972955      19463.55       1190.987       20654.537      56.65192      -420.27641      269.62516      320.60701      0.0084045823   0.00844       -0.0039679591  -0.0013369838   0.0084045823  -0.0039758523  -0.0013378784   35.504713     -0.93345584    -1.8425195      10.577564     -13.507986      6.6685055      59.085964      52.630442      60.796824      1              189061.13      1.2695335      6175.8496      15332.718     -5430.8268      13.425764     -1109.1651      24338.428     -19856.88       3372.3837      42.2         
     42400   18.9036        19445.242      1186.6334      20631.875     -124.03487     -413.04116     -18.938318      59.874874      0.0084442468   0.00848       -0.0038957499  -0.002380286    0.0084442468  -0.0039033581  -0.0023831233   38.401582      0.9201459      1.1791045      9.0293668     -18.038972      6.8431798      59.088308      52.634258      60.73331       1              188884.8       1.2707187      6161.9835      15318.077     -5408.9365      14.330071     -1109.4647      24326.478     -19857.227      3359.7871      42.4         
     42600   19.050031      19451.489      1195.8253      20647.314     -188.88688     -614.51718      62.651789     -14.795236      0.0084839096   0.00852       -0.0036862481  -0.0019020476   0.0084839096  -0.003693059   -0.0019038588   39.741758     -0.61412347    -2.1995083      10.517235     -18.930061      4.6813564      59.090651      52.645328      60.762424      1              189022.59      1.2697924      6167.0139      15309.82      -5419.2218      15.676843     -1103.7878      24339.352     -19857.364      3378.2005      42.6         
     42800   18.946432      19462.335      1189.3221      20651.657     -386.47322     -567.05449     -245.09646     -347.26871      0.0085235709   0.00856       -0.0043919606  -0.0016227079   0.0085235709  -0.0044016336  -0.0016240259   38.913251     -0.48584408     2.6012376      8.0606589     -18.101528      9.7761142      59.092995      52.608038      60.77943       1              188949.06      1.2702865      6165.4934      15321.51      -5398.9485      15.694947     -1106.7622      24322.93      -19857.582      3358.5858      42.8         
     43000   18.852568      19456.024      1183.43        20639.454     -113.65758     -399.7175      -99.148711      157.89348      0.0085632307   0.0086        -0.0036374683  -0.0016251886   0.0085632307  -0.0036441     -0.0016265107   44.194941      1.1085664     -1.5539197      8.4985336     -19.768919      9.4094417      59.095339      52.647905      60.779279      1              189099.28      1.2692774      6193.5211      15307.04      -5414.4111      16.500962     -1107.9069      24318.764     -19857.483      3353.3732      43           
     43200   18.933844      19462.63       1188.5319      20651.162     -131.48848     -354.58228      22.675115     -62.55826       0.0086028888   0.00864       -0.0040240197  -0.0019748652   0.0086028888  -0.0040321378  -0.0019768179   42.179688     -0.66942826     2.9064319      8.8453386     -15.84534       6.6564894      59.097682      52.62748       60.757991      1              188967.2       1.2701645      6185.2074      15297.501     -5412.0607      15.6307       -1103.6831      24337.678     -19857.643      3376.3524   